M 0.00000 0 (663.00, 484.00, 0.00), (0.00, 0.00), 0.00
M 0.00000 8 (761.00, 234.00, 0.00), (335.00, 500.00), 5.00
M 0.00000 11 (825.00, 140.00, 0.00), (565.00, 420.00), 5.00
M 0.00000 17 (908.00, 344.00, 0.00), (765.00, 320.00), 5.00
M 1.00000 2 (791.00, 406.00, 0.00), (615.00, 340.00), 5.00
M 1.00000 3 (668.00, 393.00, 0.00), (680.00, 458.00), 5.00
M 1.00000 12 (509.00, 34.00, 0.00), (700.00, 20.00), 5.00
M 1.00000 14 (822.00, 51.00, 0.00), (195.00, 185.00), 5.00
M 1.00000 15 (373.00, 271.00, 0.00), (387.00, 590.00), 5.00
M 1.00000 18 (600.00, 180.00, 0.00), (109.00, 20.00), 5.00
M 1.00000 19 (455.00, 479.00, 0.00), (175.00, 185.00), 5.00
s 1.000000000 _16_ AGT  --- 0 cbr 1000 [0 0 0 0] ------- [16:0 10:0 32 0] [0] 0 0
r 1.000000000 _16_ RTR  --- 0 cbr 1000 [0 0 0 0] ------- [16:0 10:0 32 0] [0] 0 0
s 1.000000000 _16_ RTR  --- 0 AODV 48 [0 0 0 0] ------- [16:255 -1:255 30 0] [0x2 1 1 [10 0] [16 4]] (REQUEST)
s 1.000535000 _16_ MAC  --- 0 AODV 106 [0 ffffffff 10 800] ------- [16:255 -1:255 30 0] [0x2 1 1 [10 0] [16 4]] (REQUEST)
r 1.001383294 _17_ MAC  --- 0 AODV 48 [0 ffffffff 10 800] ------- [16:255 -1:255 30 0] [0x2 1 1 [10 0] [16 4]] (REQUEST)
r 1.001383456 _5_ MAC  --- 0 AODV 48 [0 ffffffff 10 800] ------- [16:255 -1:255 30 0] [0x2 1 1 [10 0] [16 4]] (REQUEST)
r 1.001383460 _11_ MAC  --- 0 AODV 48 [0 ffffffff 10 800] ------- [16:255 -1:255 30 0] [0x2 1 1 [10 0] [16 4]] (REQUEST)
r 1.001383491 _8_ MAC  --- 0 AODV 48 [0 ffffffff 10 800] ------- [16:255 -1:255 30 0] [0x2 1 1 [10 0] [16 4]] (REQUEST)
r 1.001383627 _2_ MAC  --- 0 AODV 48 [0 ffffffff 10 800] ------- [16:255 -1:255 30 0] [0x2 1 1 [10 0] [16 4]] (REQUEST)
r 1.001383732 _14_ MAC  --- 0 AODV 48 [0 ffffffff 10 800] ------- [16:255 -1:255 30 0] [0x2 1 1 [10 0] [16 4]] (REQUEST)
r 1.001383772 _10_ MAC  --- 0 AODV 48 [0 ffffffff 10 800] ------- [16:255 -1:255 30 0] [0x2 1 1 [10 0] [16 4]] (REQUEST)
r 1.001383800 _7_ MAC  --- 0 AODV 48 [0 ffffffff 10 800] ------- [16:255 -1:255 30 0] [0x2 1 1 [10 0] [16 4]] (REQUEST)
r 1.001408294 _17_ RTR  --- 0 AODV 48 [0 ffffffff 10 800] ------- [16:255 -1:255 30 0] [0x2 1 1 [10 0] [16 4]] (REQUEST)
r 1.001408456 _5_ RTR  --- 0 AODV 48 [0 ffffffff 10 800] ------- [16:255 -1:255 30 0] [0x2 1 1 [10 0] [16 4]] (REQUEST)
r 1.001408460 _11_ RTR  --- 0 AODV 48 [0 ffffffff 10 800] ------- [16:255 -1:255 30 0] [0x2 1 1 [10 0] [16 4]] (REQUEST)
r 1.001408491 _8_ RTR  --- 0 AODV 48 [0 ffffffff 10 800] ------- [16:255 -1:255 30 0] [0x2 1 1 [10 0] [16 4]] (REQUEST)
r 1.001408627 _2_ RTR  --- 0 AODV 48 [0 ffffffff 10 800] ------- [16:255 -1:255 30 0] [0x2 1 1 [10 0] [16 4]] (REQUEST)
r 1.001408732 _14_ RTR  --- 0 AODV 48 [0 ffffffff 10 800] ------- [16:255 -1:255 30 0] [0x2 1 1 [10 0] [16 4]] (REQUEST)
r 1.001408772 _10_ RTR  --- 0 AODV 48 [0 ffffffff 10 800] ------- [16:255 -1:255 30 0] [0x2 1 1 [10 0] [16 4]] (REQUEST)
s 1.001408772 _10_ RTR  --- 0 AODV 44 [0 0 0 0] ------- [10:255 16:255 30 16] [0x4 1 [10 4] 10.000000] (REPLY)
r 1.001408800 _7_ RTR  --- 0 AODV 48 [0 ffffffff 10 800] ------- [16:255 -1:255 30 0] [0x2 1 1 [10 0] [16 4]] (REQUEST)
s 1.001408800 _7_ RTR  --- 0 AODV 44 [0 0 0 0] ------- [7:255 16:255 30 16] [0x4 1 [10 4] 10.000000] (REPLY)
s 1.001550341 _17_ RTR  --- 0 AODV 48 [0 ffffffff 10 800] ------- [17:255 -1:255 29 0] [0x2 2 1 [10 0] [16 4]] (REQUEST)
s 1.001703772 _10_ MAC  --- 0 ARP 86 [0 ffffffff a 806] ------- [REQUEST 10/10 0/16]
s 1.002289683 _5_ RTR  --- 0 AODV 48 [0 ffffffff 10 800] ------- [5:255 -1:255 29 0] [0x2 2 1 [10 0] [16 4]] (REQUEST)
r 1.002392055 _7_ MAC  --- 0 ARP 28 [0 ffffffff a 806] ------- [REQUEST 10/10 0/16]
r 1.002392070 _13_ MAC  --- 0 ARP 28 [0 ffffffff a 806] ------- [REQUEST 10/10 0/16]
r 1.002392116 _6_ MAC  --- 0 ARP 28 [0 ffffffff a 806] ------- [REQUEST 10/10 0/16]
r 1.002392139 _11_ MAC  --- 0 ARP 28 [0 ffffffff a 806] ------- [REQUEST 10/10 0/16]
r 1.002392183 _8_ MAC  --- 0 ARP 28 [0 ffffffff a 806] ------- [REQUEST 10/10 0/16]
r 1.002392200 _18_ MAC  --- 0 ARP 28 [0 ffffffff a 806] ------- [REQUEST 10/10 0/16]
r 1.002392201 _14_ MAC  --- 0 ARP 28 [0 ffffffff a 806] ------- [REQUEST 10/10 0/16]
r 1.002392463 _5_ MAC  --- 0 ARP 28 [0 ffffffff a 806] ------- [REQUEST 10/10 0/16]
r 1.002392515 _12_ MAC  --- 0 ARP 28 [0 ffffffff a 806] ------- [REQUEST 10/10 0/16]
r 1.002392545 _16_ MAC  --- 0 ARP 28 [0 ffffffff a 806] ------- [REQUEST 10/10 0/16]
r 1.002392566 _9_ MAC  --- 0 ARP 28 [0 ffffffff a 806] ------- [REQUEST 10/10 0/16]
s 1.002562055 _7_ MAC  --- 0 ARP 86 [0 ffffffff 7 806] ------- [REQUEST 7/7 0/16]
r 1.003250296 _18_ MAC  --- 0 ARP 28 [0 ffffffff 7 806] ------- [REQUEST 7/7 0/16]
r 1.003250337 _10_ MAC  --- 0 ARP 28 [0 ffffffff 7 806] ------- [REQUEST 7/7 0/16]
r 1.003250374 _8_ MAC  --- 0 ARP 28 [0 ffffffff 7 806] ------- [REQUEST 7/7 0/16]
r 1.003250573 _6_ MAC  --- 0 ARP 28 [0 ffffffff 7 806] ------- [REQUEST 7/7 0/16]
r 1.003250584 _11_ MAC  --- 0 ARP 28 [0 ffffffff 7 806] ------- [REQUEST 7/7 0/16]
r 1.003250584 _13_ MAC  --- 0 ARP 28 [0 ffffffff 7 806] ------- [REQUEST 7/7 0/16]
r 1.003250605 _5_ MAC  --- 0 ARP 28 [0 ffffffff 7 806] ------- [REQUEST 7/7 0/16]
r 1.003250619 _4_ MAC  --- 0 ARP 28 [0 ffffffff 7 806] ------- [REQUEST 7/7 0/16]
r 1.003250718 _3_ MAC  --- 0 ARP 28 [0 ffffffff 7 806] ------- [REQUEST 7/7 0/16]
r 1.003250748 _14_ MAC  --- 0 ARP 28 [0 ffffffff 7 806] ------- [REQUEST 7/7 0/16]
r 1.003250754 _9_ MAC  --- 0 ARP 28 [0 ffffffff 7 806] ------- [REQUEST 7/7 0/16]
r 1.003250814 _12_ MAC  --- 0 ARP 28 [0 ffffffff 7 806] ------- [REQUEST 7/7 0/16]
r 1.003250854 _16_ MAC  --- 0 ARP 28 [0 ffffffff 7 806] ------- [REQUEST 7/7 0/16]
r 1.003250867 _2_ MAC  --- 0 ARP 28 [0 ffffffff 7 806] ------- [REQUEST 7/7 0/16]
s 1.003420605 _5_ MAC  --- 0 AODV 106 [0 ffffffff 5 800] ------- [5:255 -1:255 29 0] [0x2 2 1 [10 0] [16 4]] (REQUEST)
r 1.004268884 _8_ MAC  --- 0 AODV 48 [0 ffffffff 5 800] ------- [5:255 -1:255 29 0] [0x2 2 1 [10 0] [16 4]] (REQUEST)
r 1.004268903 _2_ MAC  --- 0 AODV 48 [0 ffffffff 5 800] ------- [5:255 -1:255 29 0] [0x2 2 1 [10 0] [16 4]] (REQUEST)
r 1.004269021 _17_ MAC  --- 0 AODV 48 [0 ffffffff 5 800] ------- [5:255 -1:255 29 0] [0x2 2 1 [10 0] [16 4]] (REQUEST)
r 1.004269059 _3_ MAC  --- 0 AODV 48 [0 ffffffff 5 800] ------- [5:255 -1:255 29 0] [0x2 2 1 [10 0] [16 4]] (REQUEST)
r 1.004269061 _16_ MAC  --- 0 AODV 48 [0 ffffffff 5 800] ------- [5:255 -1:255 29 0] [0x2 2 1 [10 0] [16 4]] (REQUEST)
r 1.004269155 _7_ MAC  --- 0 AODV 48 [0 ffffffff 5 800] ------- [5:255 -1:255 29 0] [0x2 2 1 [10 0] [16 4]] (REQUEST)
r 1.004269198 _11_ MAC  --- 0 AODV 48 [0 ffffffff 5 800] ------- [5:255 -1:255 29 0] [0x2 2 1 [10 0] [16 4]] (REQUEST)
r 1.004269286 _0_ MAC  --- 0 AODV 48 [0 ffffffff 5 800] ------- [5:255 -1:255 29 0] [0x2 2 1 [10 0] [16 4]] (REQUEST)
r 1.004269295 _10_ MAC  --- 0 AODV 48 [0 ffffffff 5 800] ------- [5:255 -1:255 29 0] [0x2 2 1 [10 0] [16 4]] (REQUEST)
r 1.004269348 _4_ MAC  --- 0 AODV 48 [0 ffffffff 5 800] ------- [5:255 -1:255 29 0] [0x2 2 1 [10 0] [16 4]] (REQUEST)
r 1.004269361 _18_ MAC  --- 0 AODV 48 [0 ffffffff 5 800] ------- [5:255 -1:255 29 0] [0x2 2 1 [10 0] [16 4]] (REQUEST)
r 1.004293884 _8_ RTR  --- 0 AODV 48 [0 ffffffff 5 800] ------- [5:255 -1:255 29 0] [0x2 2 1 [10 0] [16 4]] (REQUEST)
r 1.004293903 _2_ RTR  --- 0 AODV 48 [0 ffffffff 5 800] ------- [5:255 -1:255 29 0] [0x2 2 1 [10 0] [16 4]] (REQUEST)
r 1.004294021 _17_ RTR  --- 0 AODV 48 [0 ffffffff 5 800] ------- [5:255 -1:255 29 0] [0x2 2 1 [10 0] [16 4]] (REQUEST)
r 1.004294059 _3_ RTR  --- 0 AODV 48 [0 ffffffff 5 800] ------- [5:255 -1:255 29 0] [0x2 2 1 [10 0] [16 4]] (REQUEST)
r 1.004294061 _16_ RTR  --- 0 AODV 48 [0 ffffffff 5 800] ------- [5:255 -1:255 29 0] [0x2 2 1 [10 0] [16 4]] (REQUEST)
r 1.004294155 _7_ RTR  --- 0 AODV 48 [0 ffffffff 5 800] ------- [5:255 -1:255 29 0] [0x2 2 1 [10 0] [16 4]] (REQUEST)
r 1.004294198 _11_ RTR  --- 0 AODV 48 [0 ffffffff 5 800] ------- [5:255 -1:255 29 0] [0x2 2 1 [10 0] [16 4]] (REQUEST)
r 1.004294286 _0_ RTR  --- 0 AODV 48 [0 ffffffff 5 800] ------- [5:255 -1:255 29 0] [0x2 2 1 [10 0] [16 4]] (REQUEST)
r 1.004294295 _10_ RTR  --- 0 AODV 48 [0 ffffffff 5 800] ------- [5:255 -1:255 29 0] [0x2 2 1 [10 0] [16 4]] (REQUEST)
r 1.004294348 _4_ RTR  --- 0 AODV 48 [0 ffffffff 5 800] ------- [5:255 -1:255 29 0] [0x2 2 1 [10 0] [16 4]] (REQUEST)
r 1.004294361 _18_ RTR  --- 0 AODV 48 [0 ffffffff 5 800] ------- [5:255 -1:255 29 0] [0x2 2 1 [10 0] [16 4]] (REQUEST)
s 1.004519021 _17_ MAC  --- 0 AODV 106 [0 ffffffff 11 800] ------- [17:255 -1:255 29 0] [0x2 2 1 [10 0] [16 4]] (REQUEST)
s 1.004538244 _2_ RTR  --- 0 AODV 48 [0 ffffffff 10 800] ------- [2:255 -1:255 29 0] [0x2 2 1 [10 0] [16 4]] (REQUEST)
s 1.005235750 _18_ RTR  --- 0 AODV 48 [0 ffffffff 5 800] ------- [18:255 -1:255 28 0] [0x2 3 1 [10 0] [16 4]] (REQUEST)
r 1.005367315 _16_ MAC  --- 0 AODV 48 [0 ffffffff 11 800] ------- [17:255 -1:255 29 0] [0x2 2 1 [10 0] [16 4]] (REQUEST)
r 1.005367437 _5_ MAC  --- 0 AODV 48 [0 ffffffff 11 800] ------- [17:255 -1:255 29 0] [0x2 2 1 [10 0] [16 4]] (REQUEST)
r 1.005367449 _2_ MAC  --- 0 AODV 48 [0 ffffffff 11 800] ------- [17:255 -1:255 29 0] [0x2 2 1 [10 0] [16 4]] (REQUEST)
r 1.005367624 _8_ MAC  --- 0 AODV 48 [0 ffffffff 11 800] ------- [17:255 -1:255 29 0] [0x2 2 1 [10 0] [16 4]] (REQUEST)
r 1.005367739 _11_ MAC  --- 0 AODV 48 [0 ffffffff 11 800] ------- [17:255 -1:255 29 0] [0x2 2 1 [10 0] [16 4]] (REQUEST)
r 1.005367822 _3_ MAC  --- 0 AODV 48 [0 ffffffff 11 800] ------- [17:255 -1:255 29 0] [0x2 2 1 [10 0] [16 4]] (REQUEST)
r 1.005392315 _16_ RTR  --- 0 AODV 48 [0 ffffffff 11 800] ------- [17:255 -1:255 29 0] [0x2 2 1 [10 0] [16 4]] (REQUEST)
r 1.005392437 _5_ RTR  --- 0 AODV 48 [0 ffffffff 11 800] ------- [17:255 -1:255 29 0] [0x2 2 1 [10 0] [16 4]] (REQUEST)
r 1.005392449 _2_ RTR  --- 0 AODV 48 [0 ffffffff 11 800] ------- [17:255 -1:255 29 0] [0x2 2 1 [10 0] [16 4]] (REQUEST)
r 1.005392624 _8_ RTR  --- 0 AODV 48 [0 ffffffff 11 800] ------- [17:255 -1:255 29 0] [0x2 2 1 [10 0] [16 4]] (REQUEST)
r 1.005392739 _11_ RTR  --- 0 AODV 48 [0 ffffffff 11 800] ------- [17:255 -1:255 29 0] [0x2 2 1 [10 0] [16 4]] (REQUEST)
r 1.005392822 _3_ RTR  --- 0 AODV 48 [0 ffffffff 11 800] ------- [17:255 -1:255 29 0] [0x2 2 1 [10 0] [16 4]] (REQUEST)
s 1.005537315 _16_ MAC  --- 0 RTS 44 [52e a 10 0] 
s 1.005820194 _11_ RTR  --- 0 AODV 48 [0 ffffffff 10 800] ------- [11:255 -1:255 29 0] [0x2 2 1 [10 0] [16 4]] (REQUEST)
r 1.005890087 _10_ MAC  --- 0 RTS 44 [52e a 10 0] 
s 1.005900087 _10_ MAC  --- 0 CTS 38 [3f4 10 0 0] 
s 1.006042401 _4_ RTR  --- 0 AODV 48 [0 ffffffff 5 800] ------- [4:255 -1:255 28 0] [0x2 3 1 [10 0] [16 4]] (REQUEST)
r 1.006204859 _16_ MAC  --- 0 CTS 38 [3f4 10 0 0] 
s 1.006214859 _16_ MAC  --- 0 ARP 86 [13a a 10 806] ------- [REPLY 16/16 10/10]
r 1.006903632 _10_ MAC  --- 0 ARP 28 [13a a 10 806] ------- [REPLY 16/16 10/10]
s 1.006913632 _10_ MAC  --- 0 ACK 38 [0 10 0 0] 
r 1.007218404 _16_ MAC  --- 0 ACK 38 [0 10 0 0] 
s 1.007287998 _11_ MAC  --- 0 AODV 106 [0 ffffffff b 800] ------- [11:255 -1:255 29 0] [0x2 2 1 [10 0] [16 4]] (REQUEST)
r 1.008136307 _14_ MAC  --- 0 AODV 48 [0 ffffffff b 800] ------- [11:255 -1:255 29 0] [0x2 2 1 [10 0] [16 4]] (REQUEST)
r 1.008136364 _10_ MAC  --- 0 AODV 48 [0 ffffffff b 800] ------- [11:255 -1:255 29 0] [0x2 2 1 [10 0] [16 4]] (REQUEST)
r 1.008136376 _8_ MAC  --- 0 AODV 48 [0 ffffffff b 800] ------- [11:255 -1:255 29 0] [0x2 2 1 [10 0] [16 4]] (REQUEST)
r 1.008136458 _16_ MAC  --- 0 AODV 48 [0 ffffffff b 800] ------- [11:255 -1:255 29 0] [0x2 2 1 [10 0] [16 4]] (REQUEST)
r 1.008136527 _7_ MAC  --- 0 AODV 48 [0 ffffffff b 800] ------- [11:255 -1:255 29 0] [0x2 2 1 [10 0] [16 4]] (REQUEST)
r 1.008136573 _13_ MAC  --- 0 AODV 48 [0 ffffffff b 800] ------- [11:255 -1:255 29 0] [0x2 2 1 [10 0] [16 4]] (REQUEST)
r 1.008136591 _5_ MAC  --- 0 AODV 48 [0 ffffffff b 800] ------- [11:255 -1:255 29 0] [0x2 2 1 [10 0] [16 4]] (REQUEST)
r 1.008136666 _6_ MAC  --- 0 AODV 48 [0 ffffffff b 800] ------- [11:255 -1:255 29 0] [0x2 2 1 [10 0] [16 4]] (REQUEST)
r 1.008136716 _17_ MAC  --- 0 AODV 48 [0 ffffffff b 800] ------- [11:255 -1:255 29 0] [0x2 2 1 [10 0] [16 4]] (REQUEST)
r 1.008136747 _18_ MAC  --- 0 AODV 48 [0 ffffffff b 800] ------- [11:255 -1:255 29 0] [0x2 2 1 [10 0] [16 4]] (REQUEST)
r 1.008161307 _14_ RTR  --- 0 AODV 48 [0 ffffffff b 800] ------- [11:255 -1:255 29 0] [0x2 2 1 [10 0] [16 4]] (REQUEST)
r 1.008161364 _10_ RTR  --- 0 AODV 48 [0 ffffffff b 800] ------- [11:255 -1:255 29 0] [0x2 2 1 [10 0] [16 4]] (REQUEST)
r 1.008161376 _8_ RTR  --- 0 AODV 48 [0 ffffffff b 800] ------- [11:255 -1:255 29 0] [0x2 2 1 [10 0] [16 4]] (REQUEST)
r 1.008161458 _16_ RTR  --- 0 AODV 48 [0 ffffffff b 800] ------- [11:255 -1:255 29 0] [0x2 2 1 [10 0] [16 4]] (REQUEST)
r 1.008161527 _7_ RTR  --- 0 AODV 48 [0 ffffffff b 800] ------- [11:255 -1:255 29 0] [0x2 2 1 [10 0] [16 4]] (REQUEST)
r 1.008161573 _13_ RTR  --- 0 AODV 48 [0 ffffffff b 800] ------- [11:255 -1:255 29 0] [0x2 2 1 [10 0] [16 4]] (REQUEST)
s 1.008161573 _13_ RTR  --- 0 AODV 44 [0 0 0 0] ------- [13:255 16:255 30 11] [0x4 1 [10 4] 10.000000] (REPLY)
r 1.008161591 _5_ RTR  --- 0 AODV 48 [0 ffffffff b 800] ------- [11:255 -1:255 29 0] [0x2 2 1 [10 0] [16 4]] (REQUEST)
r 1.008161666 _6_ RTR  --- 0 AODV 48 [0 ffffffff b 800] ------- [11:255 -1:255 29 0] [0x2 2 1 [10 0] [16 4]] (REQUEST)
r 1.008161716 _17_ RTR  --- 0 AODV 48 [0 ffffffff b 800] ------- [11:255 -1:255 29 0] [0x2 2 1 [10 0] [16 4]] (REQUEST)
r 1.008161747 _18_ RTR  --- 0 AODV 48 [0 ffffffff b 800] ------- [11:255 -1:255 29 0] [0x2 2 1 [10 0] [16 4]] (REQUEST)
s 1.008346458 _16_ MAC  --- 0 RTS 44 [52e 7 10 0] 
s 1.008530854 _0_ RTR  --- 0 AODV 48 [0 ffffffff 5 800] ------- [0:255 -1:255 28 0] [0x2 3 1 [10 0] [16 4]] (REQUEST)
r 1.008699257 _7_ MAC  --- 0 RTS 44 [52e 7 10 0] 
s 1.008709257 _7_ MAC  --- 0 CTS 38 [3f4 10 0 0] 
r 1.009014057 _16_ MAC  --- 0 CTS 38 [3f4 10 0 0] 
s 1.009024057 _16_ MAC  --- 0 ARP 86 [13a 7 10 806] ------- [REPLY 16/16 7/7]
s 1.009400046 _8_ RTR  --- 0 AODV 48 [0 ffffffff 10 800] ------- [8:255 -1:255 29 0] [0x2 2 1 [10 0] [16 4]] (REQUEST)
s 1.009573492 _14_ RTR  --- 0 AODV 48 [0 ffffffff 10 800] ------- [14:255 -1:255 29 0] [0x2 2 1 [10 0] [16 4]] (REQUEST)
r 1.009712857 _7_ MAC  --- 0 ARP 28 [13a 7 10 806] ------- [REPLY 16/16 7/7]
s 1.009722857 _7_ MAC  --- 0 ACK 38 [0 10 0 0] 
r 1.010027656 _16_ MAC  --- 0 ACK 38 [0 10 0 0] 
s 1.010117176 _8_ MAC  --- 0 AODV 106 [0 ffffffff 8 800] ------- [8:255 -1:255 29 0] [0x2 2 1 [10 0] [16 4]] (REQUEST)
r 1.010965455 _5_ MAC  --- 0 AODV 48 [0 ffffffff 8 800] ------- [8:255 -1:255 29 0] [0x2 2 1 [10 0] [16 4]] (REQUEST)
r 1.010965495 _7_ MAC  --- 0 AODV 48 [0 ffffffff 8 800] ------- [8:255 -1:255 29 0] [0x2 2 1 [10 0] [16 4]] (REQUEST)
r 1.010965554 _11_ MAC  --- 0 AODV 48 [0 ffffffff 8 800] ------- [8:255 -1:255 29 0] [0x2 2 1 [10 0] [16 4]] (REQUEST)
r 1.010965587 _10_ MAC  --- 0 AODV 48 [0 ffffffff 8 800] ------- [8:255 -1:255 29 0] [0x2 2 1 [10 0] [16 4]] (REQUEST)
r 1.010965667 _16_ MAC  --- 0 AODV 48 [0 ffffffff 8 800] ------- [8:255 -1:255 29 0] [0x2 2 1 [10 0] [16 4]] (REQUEST)
r 1.010965731 _18_ MAC  --- 0 AODV 48 [0 ffffffff 8 800] ------- [8:255 -1:255 29 0] [0x2 2 1 [10 0] [16 4]] (REQUEST)
r 1.010965752 _2_ MAC  --- 0 AODV 48 [0 ffffffff 8 800] ------- [8:255 -1:255 29 0] [0x2 2 1 [10 0] [16 4]] (REQUEST)
r 1.010965775 _3_ MAC  --- 0 AODV 48 [0 ffffffff 8 800] ------- [8:255 -1:255 29 0] [0x2 2 1 [10 0] [16 4]] (REQUEST)
r 1.010965779 _17_ MAC  --- 0 AODV 48 [0 ffffffff 8 800] ------- [8:255 -1:255 29 0] [0x2 2 1 [10 0] [16 4]] (REQUEST)
r 1.010965832 _14_ MAC  --- 0 AODV 48 [0 ffffffff 8 800] ------- [8:255 -1:255 29 0] [0x2 2 1 [10 0] [16 4]] (REQUEST)
r 1.010965884 _13_ MAC  --- 0 AODV 48 [0 ffffffff 8 800] ------- [8:255 -1:255 29 0] [0x2 2 1 [10 0] [16 4]] (REQUEST)
r 1.010965894 _4_ MAC  --- 0 AODV 48 [0 ffffffff 8 800] ------- [8:255 -1:255 29 0] [0x2 2 1 [10 0] [16 4]] (REQUEST)
r 1.010965922 _6_ MAC  --- 0 AODV 48 [0 ffffffff 8 800] ------- [8:255 -1:255 29 0] [0x2 2 1 [10 0] [16 4]] (REQUEST)
r 1.010990455 _5_ RTR  --- 0 AODV 48 [0 ffffffff 8 800] ------- [8:255 -1:255 29 0] [0x2 2 1 [10 0] [16 4]] (REQUEST)
r 1.010990495 _7_ RTR  --- 0 AODV 48 [0 ffffffff 8 800] ------- [8:255 -1:255 29 0] [0x2 2 1 [10 0] [16 4]] (REQUEST)
r 1.010990554 _11_ RTR  --- 0 AODV 48 [0 ffffffff 8 800] ------- [8:255 -1:255 29 0] [0x2 2 1 [10 0] [16 4]] (REQUEST)
r 1.010990587 _10_ RTR  --- 0 AODV 48 [0 ffffffff 8 800] ------- [8:255 -1:255 29 0] [0x2 2 1 [10 0] [16 4]] (REQUEST)
r 1.010990667 _16_ RTR  --- 0 AODV 48 [0 ffffffff 8 800] ------- [8:255 -1:255 29 0] [0x2 2 1 [10 0] [16 4]] (REQUEST)
r 1.010990731 _18_ RTR  --- 0 AODV 48 [0 ffffffff 8 800] ------- [8:255 -1:255 29 0] [0x2 2 1 [10 0] [16 4]] (REQUEST)
r 1.010990752 _2_ RTR  --- 0 AODV 48 [0 ffffffff 8 800] ------- [8:255 -1:255 29 0] [0x2 2 1 [10 0] [16 4]] (REQUEST)
r 1.010990775 _3_ RTR  --- 0 AODV 48 [0 ffffffff 8 800] ------- [8:255 -1:255 29 0] [0x2 2 1 [10 0] [16 4]] (REQUEST)
r 1.010990779 _17_ RTR  --- 0 AODV 48 [0 ffffffff 8 800] ------- [8:255 -1:255 29 0] [0x2 2 1 [10 0] [16 4]] (REQUEST)
r 1.010990832 _14_ RTR  --- 0 AODV 48 [0 ffffffff 8 800] ------- [8:255 -1:255 29 0] [0x2 2 1 [10 0] [16 4]] (REQUEST)
r 1.010990884 _13_ RTR  --- 0 AODV 48 [0 ffffffff 8 800] ------- [8:255 -1:255 29 0] [0x2 2 1 [10 0] [16 4]] (REQUEST)
r 1.010990894 _4_ RTR  --- 0 AODV 48 [0 ffffffff 8 800] ------- [8:255 -1:255 29 0] [0x2 2 1 [10 0] [16 4]] (REQUEST)
r 1.010990922 _6_ RTR  --- 0 AODV 48 [0 ffffffff 8 800] ------- [8:255 -1:255 29 0] [0x2 2 1 [10 0] [16 4]] (REQUEST)
s 1.011055731 _18_ MAC  --- 0 AODV 106 [0 ffffffff 12 800] ------- [18:255 -1:255 28 0] [0x2 3 1 [10 0] [16 4]] (REQUEST)
r 1.011903973 _7_ MAC  --- 0 AODV 48 [0 ffffffff 12 800] ------- [18:255 -1:255 28 0] [0x2 3 1 [10 0] [16 4]] (REQUEST)
r 1.011904159 _10_ MAC  --- 0 AODV 48 [0 ffffffff 12 800] ------- [18:255 -1:255 28 0] [0x2 3 1 [10 0] [16 4]] (REQUEST)
r 1.011904195 _9_ MAC  --- 0 AODV 48 [0 ffffffff 12 800] ------- [18:255 -1:255 28 0] [0x2 3 1 [10 0] [16 4]] (REQUEST)
r 1.011904219 _4_ MAC  --- 0 AODV 48 [0 ffffffff 12 800] ------- [18:255 -1:255 28 0] [0x2 3 1 [10 0] [16 4]] (REQUEST)
r 1.011904227 _6_ MAC  --- 0 AODV 48 [0 ffffffff 12 800] ------- [18:255 -1:255 28 0] [0x2 3 1 [10 0] [16 4]] (REQUEST)
r 1.011904287 _8_ MAC  --- 0 AODV 48 [0 ffffffff 12 800] ------- [18:255 -1:255 28 0] [0x2 3 1 [10 0] [16 4]] (REQUEST)
r 1.011904292 _13_ MAC  --- 0 AODV 48 [0 ffffffff 12 800] ------- [18:255 -1:255 28 0] [0x2 3 1 [10 0] [16 4]] (REQUEST)
r 1.011904305 _12_ MAC  --- 0 AODV 48 [0 ffffffff 12 800] ------- [18:255 -1:255 28 0] [0x2 3 1 [10 0] [16 4]] (REQUEST)
r 1.011904477 _3_ MAC  --- 0 AODV 48 [0 ffffffff 12 800] ------- [18:255 -1:255 28 0] [0x2 3 1 [10 0] [16 4]] (REQUEST)
r 1.011904480 _11_ MAC  --- 0 AODV 48 [0 ffffffff 12 800] ------- [18:255 -1:255 28 0] [0x2 3 1 [10 0] [16 4]] (REQUEST)
r 1.011904488 _5_ MAC  --- 0 AODV 48 [0 ffffffff 12 800] ------- [18:255 -1:255 28 0] [0x2 3 1 [10 0] [16 4]] (REQUEST)
r 1.011904547 _15_ MAC  --- 0 AODV 48 [0 ffffffff 12 800] ------- [18:255 -1:255 28 0] [0x2 3 1 [10 0] [16 4]] (REQUEST)
r 1.011928973 _7_ RTR  --- 0 AODV 48 [0 ffffffff 12 800] ------- [18:255 -1:255 28 0] [0x2 3 1 [10 0] [16 4]] (REQUEST)
r 1.011929159 _10_ RTR  --- 0 AODV 48 [0 ffffffff 12 800] ------- [18:255 -1:255 28 0] [0x2 3 1 [10 0] [16 4]] (REQUEST)
r 1.011929195 _9_ RTR  --- 0 AODV 48 [0 ffffffff 12 800] ------- [18:255 -1:255 28 0] [0x2 3 1 [10 0] [16 4]] (REQUEST)
r 1.011929219 _4_ RTR  --- 0 AODV 48 [0 ffffffff 12 800] ------- [18:255 -1:255 28 0] [0x2 3 1 [10 0] [16 4]] (REQUEST)
r 1.011929227 _6_ RTR  --- 0 AODV 48 [0 ffffffff 12 800] ------- [18:255 -1:255 28 0] [0x2 3 1 [10 0] [16 4]] (REQUEST)
r 1.011929287 _8_ RTR  --- 0 AODV 48 [0 ffffffff 12 800] ------- [18:255 -1:255 28 0] [0x2 3 1 [10 0] [16 4]] (REQUEST)
r 1.011929292 _13_ RTR  --- 0 AODV 48 [0 ffffffff 12 800] ------- [18:255 -1:255 28 0] [0x2 3 1 [10 0] [16 4]] (REQUEST)
r 1.011929305 _12_ RTR  --- 0 AODV 48 [0 ffffffff 12 800] ------- [18:255 -1:255 28 0] [0x2 3 1 [10 0] [16 4]] (REQUEST)
r 1.011929477 _3_ RTR  --- 0 AODV 48 [0 ffffffff 12 800] ------- [18:255 -1:255 28 0] [0x2 3 1 [10 0] [16 4]] (REQUEST)
r 1.011929480 _11_ RTR  --- 0 AODV 48 [0 ffffffff 12 800] ------- [18:255 -1:255 28 0] [0x2 3 1 [10 0] [16 4]] (REQUEST)
r 1.011929488 _5_ RTR  --- 0 AODV 48 [0 ffffffff 12 800] ------- [18:255 -1:255 28 0] [0x2 3 1 [10 0] [16 4]] (REQUEST)
r 1.011929547 _15_ RTR  --- 0 AODV 48 [0 ffffffff 12 800] ------- [18:255 -1:255 28 0] [0x2 3 1 [10 0] [16 4]] (REQUEST)
s 1.012134159 _10_ MAC  --- 0 RTS 44 [5ae 10 a 0] 
r 1.012486932 _16_ MAC  --- 0 RTS 44 [5ae 10 a 0] 
s 1.012496932 _16_ MAC  --- 0 CTS 38 [474 a 0 0] 
r 1.012801704 _10_ MAC  --- 0 CTS 38 [474 a 0 0] 
s 1.012811704 _10_ MAC  --- 0 AODV 102 [13a 10 a 800] ------- [10:255 16:255 30 16] [0x4 1 [10 4] 10.000000] (REPLY)
s 1.012891336 _3_ RTR  --- 0 AODV 48 [0 ffffffff 5 800] ------- [3:255 -1:255 28 0] [0x2 3 1 [10 0] [16 4]] (REQUEST)
r 1.013628476 _16_ MAC  --- 0 AODV 44 [13a 10 a 800] ------- [10:255 16:255 30 16] [0x4 1 [10 4] 10.000000] (REPLY)
s 1.013638476 _16_ MAC  --- 0 ACK 38 [0 a 0 0] 
r 1.013653476 _16_ RTR  --- 0 AODV 44 [13a 10 a 800] ------- [10:255 16:255 30 16] [0x4 1 [10 4] 10.000000] (REPLY)
s 1.013653476 _16_ RTR  --- 0 cbr 1020 [0 0 0 0] ------- [16:0 10:0 30 10] [0] 0 0
s 1.013802957 _12_ RTR  --- 0 AODV 48 [0 ffffffff 12 800] ------- [12:255 -1:255 27 0] [0x2 4 1 [10 0] [16 4]] (REQUEST)
r 1.013943249 _10_ MAC  --- 0 ACK 38 [0 a 0 0] 
s 1.014052476 _16_ MAC  --- 0 RTS 44 [242e a 10 0] 
r 1.014405249 _10_ MAC  --- 0 RTS 44 [242e a 10 0] 
s 1.014415249 _10_ MAC  --- 0 CTS 38 [22f4 10 0 0] 
r 1.014720021 _16_ MAC  --- 0 CTS 38 [22f4 10 0 0] 
s 1.014730021 _16_ MAC  --- 0 cbr 1078 [13a a 10 800] ------- [16:0 10:0 30 10] [0] 0 0
s 1.015971270 _9_ RTR  --- 0 AODV 48 [0 ffffffff 12 800] ------- [9:255 -1:255 27 0] [0x2 4 1 [10 0] [16 4]] (REQUEST)
s 1.016559918 _6_ RTR  --- 0 AODV 48 [0 ffffffff b 800] ------- [6:255 -1:255 28 0] [0x2 3 1 [10 0] [16 4]] (REQUEST)
s 1.020803982 _15_ RTR  --- 0 AODV 48 [0 ffffffff 12 800] ------- [15:255 -1:255 27 0] [0x2 4 1 [10 0] [16 4]] (REQUEST)
r 1.023354793 _10_ MAC  --- 0 cbr 1020 [13a a 10 800] ------- [16:0 10:0 30 10] [0] 1 0
s 1.023364793 _10_ MAC  --- 0 ACK 38 [0 10 0 0] 
r 1.023379793 _10_ AGT  --- 0 cbr 1020 [13a a 10 800] ------- [16:0 10:0 30 10] [0] 1 0
r 1.023669565 _16_ MAC  --- 0 ACK 38 [0 10 0 0] 
s 1.023779075 _7_ MAC  --- 0 RTS 44 [5ae 10 7 0] 
r 1.024131875 _16_ MAC  --- 0 RTS 44 [5ae 10 7 0] 
s 1.024141875 _16_ MAC  --- 0 CTS 38 [474 7 0 0] 
r 1.024446675 _7_ MAC  --- 0 CTS 38 [474 7 0 0] 
s 1.024456675 _7_ MAC  --- 0 AODV 102 [13a 10 7 800] ------- [7:255 16:255 30 16] [0x4 1 [10 4] 10.000000] (REPLY)
r 1.025273474 _16_ MAC  --- 0 AODV 44 [13a 10 7 800] ------- [7:255 16:255 30 16] [0x4 1 [10 4] 10.000000] (REPLY)
s 1.025283474 _16_ MAC  --- 0 ACK 38 [0 7 0 0] 
r 1.025298474 _16_ RTR  --- 0 AODV 44 [13a 10 7 800] ------- [7:255 16:255 30 16] [0x4 1 [10 4] 10.000000] (REPLY)
r 1.025588274 _7_ MAC  --- 0 ACK 38 [0 7 0 0] 
s 1.025738206 _14_ MAC  --- 0 AODV 106 [0 ffffffff e 800] ------- [14:255 -1:255 29 0] [0x2 2 1 [10 0] [16 4]] (REQUEST)
r 1.026586515 _11_ MAC  --- 0 AODV 48 [0 ffffffff e 800] ------- [14:255 -1:255 29 0] [0x2 2 1 [10 0] [16 4]] (REQUEST)
r 1.026586635 _10_ MAC  --- 0 AODV 48 [0 ffffffff e 800] ------- [14:255 -1:255 29 0] [0x2 2 1 [10 0] [16 4]] (REQUEST)
r 1.026586658 _13_ MAC  --- 0 AODV 48 [0 ffffffff e 800] ------- [14:255 -1:255 29 0] [0x2 2 1 [10 0] [16 4]] (REQUEST)
r 1.026586780 _6_ MAC  --- 0 AODV 48 [0 ffffffff e 800] ------- [14:255 -1:255 29 0] [0x2 2 1 [10 0] [16 4]] (REQUEST)
r 1.026586862 _8_ MAC  --- 0 AODV 48 [0 ffffffff e 800] ------- [14:255 -1:255 29 0] [0x2 2 1 [10 0] [16 4]] (REQUEST)
r 1.026586899 _7_ MAC  --- 0 AODV 48 [0 ffffffff e 800] ------- [14:255 -1:255 29 0] [0x2 2 1 [10 0] [16 4]] (REQUEST)
r 1.026586938 _16_ MAC  --- 0 AODV 48 [0 ffffffff e 800] ------- [14:255 -1:255 29 0] [0x2 2 1 [10 0] [16 4]] (REQUEST)
r 1.026611515 _11_ RTR  --- 0 AODV 48 [0 ffffffff e 800] ------- [14:255 -1:255 29 0] [0x2 2 1 [10 0] [16 4]] (REQUEST)
r 1.026611635 _10_ RTR  --- 0 AODV 48 [0 ffffffff e 800] ------- [14:255 -1:255 29 0] [0x2 2 1 [10 0] [16 4]] (REQUEST)
r 1.026611658 _13_ RTR  --- 0 AODV 48 [0 ffffffff e 800] ------- [14:255 -1:255 29 0] [0x2 2 1 [10 0] [16 4]] (REQUEST)
r 1.026611780 _6_ RTR  --- 0 AODV 48 [0 ffffffff e 800] ------- [14:255 -1:255 29 0] [0x2 2 1 [10 0] [16 4]] (REQUEST)
r 1.026611862 _8_ RTR  --- 0 AODV 48 [0 ffffffff e 800] ------- [14:255 -1:255 29 0] [0x2 2 1 [10 0] [16 4]] (REQUEST)
r 1.026611899 _7_ RTR  --- 0 AODV 48 [0 ffffffff e 800] ------- [14:255 -1:255 29 0] [0x2 2 1 [10 0] [16 4]] (REQUEST)
r 1.026611938 _16_ RTR  --- 0 AODV 48 [0 ffffffff e 800] ------- [14:255 -1:255 29 0] [0x2 2 1 [10 0] [16 4]] (REQUEST)
s 1.026756780 _6_ MAC  --- 0 AODV 106 [0 ffffffff 6 800] ------- [6:255 -1:255 28 0] [0x2 3 1 [10 0] [16 4]] (REQUEST)
r 1.027604904 _13_ MAC  --- 0 AODV 48 [0 ffffffff 6 800] ------- [6:255 -1:255 28 0] [0x2 3 1 [10 0] [16 4]] (REQUEST)
r 1.027605124 _10_ MAC  --- 0 AODV 48 [0 ffffffff 6 800] ------- [6:255 -1:255 28 0] [0x2 3 1 [10 0] [16 4]] (REQUEST)
r 1.027605250 _12_ MAC  --- 0 AODV 48 [0 ffffffff 6 800] ------- [6:255 -1:255 28 0] [0x2 3 1 [10 0] [16 4]] (REQUEST)
r 1.027605276 _18_ MAC  --- 0 AODV 48 [0 ffffffff 6 800] ------- [6:255 -1:255 28 0] [0x2 3 1 [10 0] [16 4]] (REQUEST)
r 1.027605298 _7_ MAC  --- 0 AODV 48 [0 ffffffff 6 800] ------- [6:255 -1:255 28 0] [0x2 3 1 [10 0] [16 4]] (REQUEST)
r 1.027605354 _14_ MAC  --- 0 AODV 48 [0 ffffffff 6 800] ------- [6:255 -1:255 28 0] [0x2 3 1 [10 0] [16 4]] (REQUEST)
r 1.027605414 _9_ MAC  --- 0 AODV 48 [0 ffffffff 6 800] ------- [6:255 -1:255 28 0] [0x2 3 1 [10 0] [16 4]] (REQUEST)
r 1.027605448 _11_ MAC  --- 0 AODV 48 [0 ffffffff 6 800] ------- [6:255 -1:255 28 0] [0x2 3 1 [10 0] [16 4]] (REQUEST)
r 1.027605526 _8_ MAC  --- 0 AODV 48 [0 ffffffff 6 800] ------- [6:255 -1:255 28 0] [0x2 3 1 [10 0] [16 4]] (REQUEST)
r 1.027629904 _13_ RTR  --- 0 AODV 48 [0 ffffffff 6 800] ------- [6:255 -1:255 28 0] [0x2 3 1 [10 0] [16 4]] (REQUEST)
r 1.027630124 _10_ RTR  --- 0 AODV 48 [0 ffffffff 6 800] ------- [6:255 -1:255 28 0] [0x2 3 1 [10 0] [16 4]] (REQUEST)
r 1.027630250 _12_ RTR  --- 0 AODV 48 [0 ffffffff 6 800] ------- [6:255 -1:255 28 0] [0x2 3 1 [10 0] [16 4]] (REQUEST)
r 1.027630276 _18_ RTR  --- 0 AODV 48 [0 ffffffff 6 800] ------- [6:255 -1:255 28 0] [0x2 3 1 [10 0] [16 4]] (REQUEST)
r 1.027630298 _7_ RTR  --- 0 AODV 48 [0 ffffffff 6 800] ------- [6:255 -1:255 28 0] [0x2 3 1 [10 0] [16 4]] (REQUEST)
r 1.027630354 _14_ RTR  --- 0 AODV 48 [0 ffffffff 6 800] ------- [6:255 -1:255 28 0] [0x2 3 1 [10 0] [16 4]] (REQUEST)
r 1.027630414 _9_ RTR  --- 0 AODV 48 [0 ffffffff 6 800] ------- [6:255 -1:255 28 0] [0x2 3 1 [10 0] [16 4]] (REQUEST)
r 1.027630448 _11_ RTR  --- 0 AODV 48 [0 ffffffff 6 800] ------- [6:255 -1:255 28 0] [0x2 3 1 [10 0] [16 4]] (REQUEST)
r 1.027630526 _8_ RTR  --- 0 AODV 48 [0 ffffffff 6 800] ------- [6:255 -1:255 28 0] [0x2 3 1 [10 0] [16 4]] (REQUEST)
s 1.027715414 _9_ MAC  --- 0 AODV 106 [0 ffffffff 9 800] ------- [9:255 -1:255 27 0] [0x2 4 1 [10 0] [16 4]] (REQUEST)
r 1.028563712 _12_ MAC  --- 0 AODV 48 [0 ffffffff 9 800] ------- [9:255 -1:255 27 0] [0x2 4 1 [10 0] [16 4]] (REQUEST)
r 1.028563878 _18_ MAC  --- 0 AODV 48 [0 ffffffff 9 800] ------- [9:255 -1:255 27 0] [0x2 4 1 [10 0] [16 4]] (REQUEST)
r 1.028564032 _15_ MAC  --- 0 AODV 48 [0 ffffffff 9 800] ------- [9:255 -1:255 27 0] [0x2 4 1 [10 0] [16 4]] (REQUEST)
r 1.028564049 _6_ MAC  --- 0 AODV 48 [0 ffffffff 9 800] ------- [9:255 -1:255 27 0] [0x2 4 1 [10 0] [16 4]] (REQUEST)
r 1.028564113 _7_ MAC  --- 0 AODV 48 [0 ffffffff 9 800] ------- [9:255 -1:255 27 0] [0x2 4 1 [10 0] [16 4]] (REQUEST)
r 1.028564144 _4_ MAC  --- 0 AODV 48 [0 ffffffff 9 800] ------- [9:255 -1:255 27 0] [0x2 4 1 [10 0] [16 4]] (REQUEST)
r 1.028564168 _13_ MAC  --- 0 AODV 48 [0 ffffffff 9 800] ------- [9:255 -1:255 27 0] [0x2 4 1 [10 0] [16 4]] (REQUEST)
r 1.028564208 _10_ MAC  --- 0 AODV 48 [0 ffffffff 9 800] ------- [9:255 -1:255 27 0] [0x2 4 1 [10 0] [16 4]] (REQUEST)
r 1.028588712 _12_ RTR  --- 0 AODV 48 [0 ffffffff 9 800] ------- [9:255 -1:255 27 0] [0x2 4 1 [10 0] [16 4]] (REQUEST)
r 1.028588878 _18_ RTR  --- 0 AODV 48 [0 ffffffff 9 800] ------- [9:255 -1:255 27 0] [0x2 4 1 [10 0] [16 4]] (REQUEST)
r 1.028589032 _15_ RTR  --- 0 AODV 48 [0 ffffffff 9 800] ------- [9:255 -1:255 27 0] [0x2 4 1 [10 0] [16 4]] (REQUEST)
r 1.028589049 _6_ RTR  --- 0 AODV 48 [0 ffffffff 9 800] ------- [9:255 -1:255 27 0] [0x2 4 1 [10 0] [16 4]] (REQUEST)
r 1.028589113 _7_ RTR  --- 0 AODV 48 [0 ffffffff 9 800] ------- [9:255 -1:255 27 0] [0x2 4 1 [10 0] [16 4]] (REQUEST)
r 1.028589144 _4_ RTR  --- 0 AODV 48 [0 ffffffff 9 800] ------- [9:255 -1:255 27 0] [0x2 4 1 [10 0] [16 4]] (REQUEST)
r 1.028589168 _13_ RTR  --- 0 AODV 48 [0 ffffffff 9 800] ------- [9:255 -1:255 27 0] [0x2 4 1 [10 0] [16 4]] (REQUEST)
r 1.028589208 _10_ RTR  --- 0 AODV 48 [0 ffffffff 9 800] ------- [9:255 -1:255 27 0] [0x2 4 1 [10 0] [16 4]] (REQUEST)
s 1.028634144 _4_ MAC  --- 0 AODV 106 [0 ffffffff 4 800] ------- [4:255 -1:255 28 0] [0x2 3 1 [10 0] [16 4]] (REQUEST)
s 1.028634168 _13_ MAC  --- 0 ARP 86 [0 ffffffff d 806] ------- [REQUEST 13/13 0/11]
D 1.028634708 _7_ MAC  COL 0 ARP 86 [0 ffffffff d 806] ------- [REQUEST 13/13 0/11]
D 1.028634729 _18_ MAC  COL 0 ARP 86 [0 ffffffff d 806] ------- [REQUEST 13/13 0/11]
D 1.028634876 _8_ MAC  COL 0 ARP 86 [0 ffffffff d 806] ------- [REQUEST 13/13 0/11]
D 1.028634921 _9_ MAC  COL 0 ARP 86 [0 ffffffff d 806] ------- [REQUEST 13/13 0/11]
D 1.028635111 _12_ MAC  COL 0 ARP 86 [0 ffffffff d 806] ------- [REQUEST 13/13 0/11]
r 1.029322292 _6_ MAC  --- 0 ARP 28 [0 ffffffff d 806] ------- [REQUEST 13/13 0/11]
r 1.029322465 _10_ MAC  --- 0 ARP 28 [0 ffffffff d 806] ------- [REQUEST 13/13 0/11]