M 0.00000 0 (663.00, 484.00, 0.00), (0.00, 0.00), 0.00
M 0.00000 21 (263.00, 306.00, 0.00), (100.00, 100.00), 40.00
M 0.00000 20 (350.00, 434.00, 0.00), (150.00, 175.00), 40.00
M 0.00000 8 (761.00, 234.00, 0.00), (335.00, 500.00), 5.00
M 0.00000 11 (825.00, 140.00, 0.00), (565.00, 420.00), 5.00
M 0.00000 17 (908.00, 344.00, 0.00), (765.00, 320.00), 5.00
M 1.00000 2 (791.00, 406.00, 0.00), (615.00, 340.00), 5.00
M 1.00000 3 (668.00, 393.00, 0.00), (680.00, 458.00), 5.00
M 1.00000 12 (509.00, 34.00, 0.00), (700.00, 20.00), 5.00
M 1.00000 14 (822.00, 51.00, 0.00), (195.00, 185.00), 5.00
M 1.00000 15 (373.00, 271.00, 0.00), (387.00, 590.00), 5.00
M 1.00000 18 (600.00, 180.00, 0.00), (109.00, 20.00), 5.00
M 1.00000 19 (455.00, 479.00, 0.00), (175.00, 185.00), 5.00
s 1.000000000 _21_ AGT  --- 0 cbr 1000 [0 0 0 0] ------- [21:0 17:0 32 0] [0] 0 0
r 1.000000000 _21_ RTR  --- 0 cbr 1000 [0 0 0 0] ------- [21:0 17:0 32 0] [0] 0 0
s 1.000000000 _21_ RTR  --- 0 AODV 48 [0 0 0 0] ------- [21:255 -1:255 30 0] [0x2 1 1 [17 0] [21 4]] (REQUEST)
s 1.000535000 _21_ MAC  --- 0 AODV 106 [0 ffffffff 15 800] ------- [21:255 -1:255 30 0] [0x2 1 1 [17 0] [21 4]] (REQUEST)
r 1.001383232 _22_ MAC  --- 0 AODV 48 [0 ffffffff 15 800] ------- [21:255 -1:255 30 0] [0x2 1 1 [17 0] [21 4]] (REQUEST)
r 1.001383450 _15_ MAC  --- 0 AODV 48 [0 ffffffff 15 800] ------- [21:255 -1:255 30 0] [0x2 1 1 [17 0] [21 4]] (REQUEST)
r 1.001383516 _20_ MAC  --- 0 AODV 48 [0 ffffffff 15 800] ------- [21:255 -1:255 30 0] [0x2 1 1 [17 0] [21 4]] (REQUEST)
r 1.001383532 _23_ MAC  --- 0 AODV 48 [0 ffffffff 15 800] ------- [21:255 -1:255 30 0] [0x2 1 1 [17 0] [21 4]] (REQUEST)
r 1.001408232 _22_ RTR  --- 0 AODV 48 [0 ffffffff 15 800] ------- [21:255 -1:255 30 0] [0x2 1 1 [17 0] [21 4]] (REQUEST)
r 1.001408450 _15_ RTR  --- 0 AODV 48 [0 ffffffff 15 800] ------- [21:255 -1:255 30 0] [0x2 1 1 [17 0] [21 4]] (REQUEST)
r 1.001408516 _20_ RTR  --- 0 AODV 48 [0 ffffffff 15 800] ------- [21:255 -1:255 30 0] [0x2 1 1 [17 0] [21 4]] (REQUEST)
r 1.001408532 _23_ RTR  --- 0 AODV 48 [0 ffffffff 15 800] ------- [21:255 -1:255 30 0] [0x2 1 1 [17 0] [21 4]] (REQUEST)
s 1.001550278 _22_ RTR  --- 0 AODV 48 [0 ffffffff 15 800] ------- [22:255 -1:255 29 0] [0x2 2 1 [17 0] [21 4]] (REQUEST)
s 1.001785278 _22_ MAC  --- 0 AODV 106 [0 ffffffff 16 800] ------- [22:255 -1:255 29 0] [0x2 2 1 [17 0] [21 4]] (REQUEST)
s 1.002289676 _15_ RTR  --- 0 AODV 48 [0 ffffffff 15 800] ------- [15:255 -1:255 29 0] [0x2 2 1 [17 0] [21 4]] (REQUEST)
r 1.002633510 _21_ MAC  --- 0 AODV 48 [0 ffffffff 16 800] ------- [22:255 -1:255 29 0] [0x2 2 1 [17 0] [21 4]] (REQUEST)
r 1.002633599 _23_ MAC  --- 0 AODV 48 [0 ffffffff 16 800] ------- [22:255 -1:255 29 0] [0x2 2 1 [17 0] [21 4]] (REQUEST)
r 1.002633705 _15_ MAC  --- 0 AODV 48 [0 ffffffff 16 800] ------- [22:255 -1:255 29 0] [0x2 2 1 [17 0] [21 4]] (REQUEST)
r 1.002633903 _24_ MAC  --- 0 AODV 48 [0 ffffffff 16 800] ------- [22:255 -1:255 29 0] [0x2 2 1 [17 0] [21 4]] (REQUEST)
r 1.002633957 _20_ MAC  --- 0 AODV 48 [0 ffffffff 16 800] ------- [22:255 -1:255 29 0] [0x2 2 1 [17 0] [21 4]] (REQUEST)
r 1.002634058 _9_ MAC  --- 0 AODV 48 [0 ffffffff 16 800] ------- [22:255 -1:255 29 0] [0x2 2 1 [17 0] [21 4]] (REQUEST)
r 1.002658510 _21_ RTR  --- 0 AODV 48 [0 ffffffff 16 800] ------- [22:255 -1:255 29 0] [0x2 2 1 [17 0] [21 4]] (REQUEST)
r 1.002658599 _23_ RTR  --- 0 AODV 48 [0 ffffffff 16 800] ------- [22:255 -1:255 29 0] [0x2 2 1 [17 0] [21 4]] (REQUEST)
r 1.002658705 _15_ RTR  --- 0 AODV 48 [0 ffffffff 16 800] ------- [22:255 -1:255 29 0] [0x2 2 1 [17 0] [21 4]] (REQUEST)
r 1.002658903 _24_ RTR  --- 0 AODV 48 [0 ffffffff 16 800] ------- [22:255 -1:255 29 0] [0x2 2 1 [17 0] [21 4]] (REQUEST)
r 1.002658957 _20_ RTR  --- 0 AODV 48 [0 ffffffff 16 800] ------- [22:255 -1:255 29 0] [0x2 2 1 [17 0] [21 4]] (REQUEST)
r 1.002659058 _9_ RTR  --- 0 AODV 48 [0 ffffffff 16 800] ------- [22:255 -1:255 29 0] [0x2 2 1 [17 0] [21 4]] (REQUEST)
s 1.002883705 _15_ MAC  --- 0 AODV 106 [0 ffffffff f 800] ------- [15:255 -1:255 29 0] [0x2 2 1 [17 0] [21 4]] (REQUEST)
r 1.003732132 _22_ MAC  --- 0 AODV 48 [0 ffffffff f 800] ------- [15:255 -1:255 29 0] [0x2 2 1 [17 0] [21 4]] (REQUEST)
r 1.003732155 _21_ MAC  --- 0 AODV 48 [0 ffffffff f 800] ------- [15:255 -1:255 29 0] [0x2 2 1 [17 0] [21 4]] (REQUEST)
r 1.003732170 _20_ MAC  --- 0 AODV 48 [0 ffffffff f 800] ------- [15:255 -1:255 29 0] [0x2 2 1 [17 0] [21 4]] (REQUEST)
r 1.003732254 _1_ MAC  --- 0 AODV 48 [0 ffffffff f 800] ------- [15:255 -1:255 29 0] [0x2 2 1 [17 0] [21 4]] (REQUEST)
r 1.003732323 _9_ MAC  --- 0 AODV 48 [0 ffffffff f 800] ------- [15:255 -1:255 29 0] [0x2 2 1 [17 0] [21 4]] (REQUEST)
r 1.003732343 _4_ MAC  --- 0 AODV 48 [0 ffffffff f 800] ------- [15:255 -1:255 29 0] [0x2 2 1 [17 0] [21 4]] (REQUEST)
r 1.003732388 _23_ MAC  --- 0 AODV 48 [0 ffffffff f 800] ------- [15:255 -1:255 29 0] [0x2 2 1 [17 0] [21 4]] (REQUEST)
r 1.003732450 _19_ MAC  --- 0 AODV 48 [0 ffffffff f 800] ------- [15:255 -1:255 29 0] [0x2 2 1 [17 0] [21 4]] (REQUEST)
r 1.003732520 _18_ MAC  --- 0 AODV 48 [0 ffffffff f 800] ------- [15:255 -1:255 29 0] [0x2 2 1 [17 0] [21 4]] (REQUEST)
r 1.003732536 _24_ MAC  --- 0 AODV 48 [0 ffffffff f 800] ------- [15:255 -1:255 29 0] [0x2 2 1 [17 0] [21 4]] (REQUEST)
r 1.003757132 _22_ RTR  --- 0 AODV 48 [0 ffffffff f 800] ------- [15:255 -1:255 29 0] [0x2 2 1 [17 0] [21 4]] (REQUEST)
r 1.003757155 _21_ RTR  --- 0 AODV 48 [0 ffffffff f 800] ------- [15:255 -1:255 29 0] [0x2 2 1 [17 0] [21 4]] (REQUEST)
r 1.003757170 _20_ RTR  --- 0 AODV 48 [0 ffffffff f 800] ------- [15:255 -1:255 29 0] [0x2 2 1 [17 0] [21 4]] (REQUEST)
r 1.003757254 _1_ RTR  --- 0 AODV 48 [0 ffffffff f 800] ------- [15:255 -1:255 29 0] [0x2 2 1 [17 0] [21 4]] (REQUEST)
r 1.003757323 _9_ RTR  --- 0 AODV 48 [0 ffffffff f 800] ------- [15:255 -1:255 29 0] [0x2 2 1 [17 0] [21 4]] (REQUEST)
r 1.003757343 _4_ RTR  --- 0 AODV 48 [0 ffffffff f 800] ------- [15:255 -1:255 29 0] [0x2 2 1 [17 0] [21 4]] (REQUEST)
r 1.003757388 _23_ RTR  --- 0 AODV 48 [0 ffffffff f 800] ------- [15:255 -1:255 29 0] [0x2 2 1 [17 0] [21 4]] (REQUEST)
r 1.003757450 _19_ RTR  --- 0 AODV 48 [0 ffffffff f 800] ------- [15:255 -1:255 29 0] [0x2 2 1 [17 0] [21 4]] (REQUEST)
r 1.003757520 _18_ RTR  --- 0 AODV 48 [0 ffffffff f 800] ------- [15:255 -1:255 29 0] [0x2 2 1 [17 0] [21 4]] (REQUEST)
r 1.003757536 _24_ RTR  --- 0 AODV 48 [0 ffffffff f 800] ------- [15:255 -1:255 29 0] [0x2 2 1 [17 0] [21 4]] (REQUEST)
s 1.004185288 _4_ RTR  --- 0 AODV 48 [0 ffffffff f 800] ------- [4:255 -1:255 28 0] [0x2 3 1 [17 0] [21 4]] (REQUEST)
s 1.004500288 _4_ MAC  --- 0 AODV 106 [0 ffffffff 4 800] ------- [4:255 -1:255 28 0] [0x2 3 1 [17 0] [21 4]] (REQUEST)
s 1.004895603 _18_ RTR  --- 0 AODV 48 [0 ffffffff f 800] ------- [18:255 -1:255 28 0] [0x2 3 1 [17 0] [21 4]] (REQUEST)
r 1.005348710 _1_ MAC  --- 0 AODV 48 [0 ffffffff 4 800] ------- [4:255 -1:255 28 0] [0x2 3 1 [17 0] [21 4]] (REQUEST)
r 1.005348729 _3_ MAC  --- 0 AODV 48 [0 ffffffff 4 800] ------- [4:255 -1:255 28 0] [0x2 3 1 [17 0] [21 4]] (REQUEST)
r 1.005348776 _18_ MAC  --- 0 AODV 48 [0 ffffffff 4 800] ------- [4:255 -1:255 28 0] [0x2 3 1 [17 0] [21 4]] (REQUEST)
r 1.005348853 _7_ MAC  --- 0 AODV 48 [0 ffffffff 4 800] ------- [4:255 -1:255 28 0] [0x2 3 1 [17 0] [21 4]] (REQUEST)
r 1.005348920 _19_ MAC  --- 0 AODV 48 [0 ffffffff 4 800] ------- [4:255 -1:255 28 0] [0x2 3 1 [17 0] [21 4]] (REQUEST)
r 1.005348926 _15_ MAC  --- 0 AODV 48 [0 ffffffff 4 800] ------- [4:255 -1:255 28 0] [0x2 3 1 [17 0] [21 4]] (REQUEST)
r 1.005348938 _0_ MAC  --- 0 AODV 48 [0 ffffffff 4 800] ------- [4:255 -1:255 28 0] [0x2 3 1 [17 0] [21 4]] (REQUEST)
r 1.005349007 _8_ MAC  --- 0 AODV 48 [0 ffffffff 4 800] ------- [4:255 -1:255 28 0] [0x2 3 1 [17 0] [21 4]] (REQUEST)
r 1.005349018 _9_ MAC  --- 0 AODV 48 [0 ffffffff 4 800] ------- [4:255 -1:255 28 0] [0x2 3 1 [17 0] [21 4]] (REQUEST)
r 1.005349032 _5_ MAC  --- 0 AODV 48 [0 ffffffff 4 800] ------- [4:255 -1:255 28 0] [0x2 3 1 [17 0] [21 4]] (REQUEST)
r 1.005349111 _20_ MAC  --- 0 AODV 48 [0 ffffffff 4 800] ------- [4:255 -1:255 28 0] [0x2 3 1 [17 0] [21 4]] (REQUEST)
r 1.005349116 _2_ MAC  --- 0 AODV 48 [0 ffffffff 4 800] ------- [4:255 -1:255 28 0] [0x2 3 1 [17 0] [21 4]] (REQUEST)
r 1.005373710 _1_ RTR  --- 0 AODV 48 [0 ffffffff 4 800] ------- [4:255 -1:255 28 0] [0x2 3 1 [17 0] [21 4]] (REQUEST)
r 1.005373729 _3_ RTR  --- 0 AODV 48 [0 ffffffff 4 800] ------- [4:255 -1:255 28 0] [0x2 3 1 [17 0] [21 4]] (REQUEST)
r 1.005373776 _18_ RTR  --- 0 AODV 48 [0 ffffffff 4 800] ------- [4:255 -1:255 28 0] [0x2 3 1 [17 0] [21 4]] (REQUEST)
r 1.005373853 _7_ RTR  --- 0 AODV 48 [0 ffffffff 4 800] ------- [4:255 -1:255 28 0] [0x2 3 1 [17 0] [21 4]] (REQUEST)
r 1.005373920 _19_ RTR  --- 0 AODV 48 [0 ffffffff 4 800] ------- [4:255 -1:255 28 0] [0x2 3 1 [17 0] [21 4]] (REQUEST)
r 1.005373926 _15_ RTR  --- 0 AODV 48 [0 ffffffff 4 800] ------- [4:255 -1:255 28 0] [0x2 3 1 [17 0] [21 4]] (REQUEST)
r 1.005373938 _0_ RTR  --- 0 AODV 48 [0 ffffffff 4 800] ------- [4:255 -1:255 28 0] [0x2 3 1 [17 0] [21 4]] (REQUEST)
r 1.005374007 _8_ RTR  --- 0 AODV 48 [0 ffffffff 4 800] ------- [4:255 -1:255 28 0] [0x2 3 1 [17 0] [21 4]] (REQUEST)
r 1.005374018 _9_ RTR  --- 0 AODV 48 [0 ffffffff 4 800] ------- [4:255 -1:255 28 0] [0x2 3 1 [17 0] [21 4]] (REQUEST)
r 1.005374032 _5_ RTR  --- 0 AODV 48 [0 ffffffff 4 800] ------- [4:255 -1:255 28 0] [0x2 3 1 [17 0] [21 4]] (REQUEST)
r 1.005374111 _20_ RTR  --- 0 AODV 48 [0 ffffffff 4 800] ------- [4:255 -1:255 28 0] [0x2 3 1 [17 0] [21 4]] (REQUEST)
r 1.005374116 _2_ RTR  --- 0 AODV 48 [0 ffffffff 4 800] ------- [4:255 -1:255 28 0] [0x2 3 1 [17 0] [21 4]] (REQUEST)
s 1.005398708 _1_ RTR  --- 0 AODV 48 [0 ffffffff f 800] ------- [1:255 -1:255 28 0] [0x2 3 1 [17 0] [21 4]] (REQUEST)
s 1.005558776 _18_ MAC  --- 0 AODV 106 [0 ffffffff 12 800] ------- [18:255 -1:255 28 0] [0x2 3 1 [17 0] [21 4]] (REQUEST)
s 1.005749848 _9_ RTR  --- 0 AODV 48 [0 ffffffff 16 800] ------- [9:255 -1:255 28 0] [0x2 3 1 [17 0] [21 4]] (REQUEST)
s 1.005820250 _20_ RTR  --- 0 AODV 48 [0 ffffffff 15 800] ------- [20:255 -1:255 29 0] [0x2 2 1 [17 0] [21 4]] (REQUEST)
s 1.006315117 _3_ RTR  --- 0 AODV 48 [0 ffffffff 4 800] ------- [3:255 -1:255 27 0] [0x2 4 1 [17 0] [21 4]] (REQUEST)
r 1.006407017 _7_ MAC  --- 0 AODV 48 [0 ffffffff 12 800] ------- [18:255 -1:255 28 0] [0x2 3 1 [17 0] [21 4]] (REQUEST)
r 1.006407204 _10_ MAC  --- 0 AODV 48 [0 ffffffff 12 800] ------- [18:255 -1:255 28 0] [0x2 3 1 [17 0] [21 4]] (REQUEST)
r 1.006407239 _9_ MAC  --- 0 AODV 48 [0 ffffffff 12 800] ------- [18:255 -1:255 28 0] [0x2 3 1 [17 0] [21 4]] (REQUEST)
r 1.006407263 _4_ MAC  --- 0 AODV 48 [0 ffffffff 12 800] ------- [18:255 -1:255 28 0] [0x2 3 1 [17 0] [21 4]] (REQUEST)
r 1.006407271 _6_ MAC  --- 0 AODV 48 [0 ffffffff 12 800] ------- [18:255 -1:255 28 0] [0x2 3 1 [17 0] [21 4]] (REQUEST)
r 1.006407331 _8_ MAC  --- 0 AODV 48 [0 ffffffff 12 800] ------- [18:255 -1:255 28 0] [0x2 3 1 [17 0] [21 4]] (REQUEST)
r 1.006407336 _13_ MAC  --- 0 AODV 48 [0 ffffffff 12 800] ------- [18:255 -1:255 28 0] [0x2 3 1 [17 0] [21 4]] (REQUEST)
r 1.006407349 _12_ MAC  --- 0 AODV 48 [0 ffffffff 12 800] ------- [18:255 -1:255 28 0] [0x2 3 1 [17 0] [21 4]] (REQUEST)
r 1.006407521 _3_ MAC  --- 0 AODV 48 [0 ffffffff 12 800] ------- [18:255 -1:255 28 0] [0x2 3 1 [17 0] [21 4]] (REQUEST)
r 1.006407524 _11_ MAC  --- 0 AODV 48 [0 ffffffff 12 800] ------- [18:255 -1:255 28 0] [0x2 3 1 [17 0] [21 4]] (REQUEST)
r 1.006407532 _5_ MAC  --- 0 AODV 48 [0 ffffffff 12 800] ------- [18:255 -1:255 28 0] [0x2 3 1 [17 0] [21 4]] (REQUEST)
r 1.006407591 _15_ MAC  --- 0 AODV 48 [0 ffffffff 12 800] ------- [18:255 -1:255 28 0] [0x2 3 1 [17 0] [21 4]] (REQUEST)
r 1.006432017 _7_ RTR  --- 0 AODV 48 [0 ffffffff 12 800] ------- [18:255 -1:255 28 0] [0x2 3 1 [17 0] [21 4]] (REQUEST)
r 1.006432204 _10_ RTR  --- 0 AODV 48 [0 ffffffff 12 800] ------- [18:255 -1:255 28 0] [0x2 3 1 [17 0] [21 4]] (REQUEST)
r 1.006432239 _9_ RTR  --- 0 AODV 48 [0 ffffffff 12 800] ------- [18:255 -1:255 28 0] [0x2 3 1 [17 0] [21 4]] (REQUEST)
r 1.006432263 _4_ RTR  --- 0 AODV 48 [0 ffffffff 12 800] ------- [18:255 -1:255 28 0] [0x2 3 1 [17 0] [21 4]] (REQUEST)
r 1.006432271 _6_ RTR  --- 0 AODV 48 [0 ffffffff 12 800] ------- [18:255 -1:255 28 0] [0x2 3 1 [17 0] [21 4]] (REQUEST)
r 1.006432331 _8_ RTR  --- 0 AODV 48 [0 ffffffff 12 800] ------- [18:255 -1:255 28 0] [0x2 3 1 [17 0] [21 4]] (REQUEST)
r 1.006432336 _13_ RTR  --- 0 AODV 48 [0 ffffffff 12 800] ------- [18:255 -1:255 28 0] [0x2 3 1 [17 0] [21 4]] (REQUEST)
r 1.006432349 _12_ RTR  --- 0 AODV 48 [0 ffffffff 12 800] ------- [18:255 -1:255 28 0] [0x2 3 1 [17 0] [21 4]] (REQUEST)
r 1.006432521 _3_ RTR  --- 0 AODV 48 [0 ffffffff 12 800] ------- [18:255 -1:255 28 0] [0x2 3 1 [17 0] [21 4]] (REQUEST)
r 1.006432524 _11_ RTR  --- 0 AODV 48 [0 ffffffff 12 800] ------- [18:255 -1:255 28 0] [0x2 3 1 [17 0] [21 4]] (REQUEST)
r 1.006432532 _5_ RTR  --- 0 AODV 48 [0 ffffffff 12 800] ------- [18:255 -1:255 28 0] [0x2 3 1 [17 0] [21 4]] (REQUEST)
r 1.006432591 _15_ RTR  --- 0 AODV 48 [0 ffffffff 12 800] ------- [18:255 -1:255 28 0] [0x2 3 1 [17 0] [21 4]] (REQUEST)
s 1.006637239 _9_ MAC  --- 0 AODV 106 [0 ffffffff 9 800] ------- [9:255 -1:255 28 0] [0x2 3 1 [17 0] [21 4]] (REQUEST)
r 1.007485537 _12_ MAC  --- 0 AODV 48 [0 ffffffff 9 800] ------- [9:255 -1:255 28 0] [0x2 3 1 [17 0] [21 4]] (REQUEST)
r 1.007485703 _18_ MAC  --- 0 AODV 48 [0 ffffffff 9 800] ------- [9:255 -1:255 28 0] [0x2 3 1 [17 0] [21 4]] (REQUEST)
r 1.007485857 _24_ MAC  --- 0 AODV 48 [0 ffffffff 9 800] ------- [9:255 -1:255 28 0] [0x2 3 1 [17 0] [21 4]] (REQUEST)
r 1.007485857 _15_ MAC  --- 0 AODV 48 [0 ffffffff 9 800] ------- [9:255 -1:255 28 0] [0x2 3 1 [17 0] [21 4]] (REQUEST)
r 1.007485873 _6_ MAC  --- 0 AODV 48 [0 ffffffff 9 800] ------- [9:255 -1:255 28 0] [0x2 3 1 [17 0] [21 4]] (REQUEST)
r 1.007485938 _7_ MAC  --- 0 AODV 48 [0 ffffffff 9 800] ------- [9:255 -1:255 28 0] [0x2 3 1 [17 0] [21 4]] (REQUEST)
r 1.007485969 _4_ MAC  --- 0 AODV 48 [0 ffffffff 9 800] ------- [9:255 -1:255 28 0] [0x2 3 1 [17 0] [21 4]] (REQUEST)
r 1.007485993 _13_ MAC  --- 0 AODV 48 [0 ffffffff 9 800] ------- [9:255 -1:255 28 0] [0x2 3 1 [17 0] [21 4]] (REQUEST)
r 1.007486019 _22_ MAC  --- 0 AODV 48 [0 ffffffff 9 800] ------- [9:255 -1:255 28 0] [0x2 3 1 [17 0] [21 4]] (REQUEST)
r 1.007486026 _23_ MAC  --- 0 AODV 48 [0 ffffffff 9 800] ------- [9:255 -1:255 28 0] [0x2 3 1 [17 0] [21 4]] (REQUEST)
r 1.007486033 _10_ MAC  --- 0 AODV 48 [0 ffffffff 9 800] ------- [9:255 -1:255 28 0] [0x2 3 1 [17 0] [21 4]] (REQUEST)
r 1.007510537 _12_ RTR  --- 0 AODV 48 [0 ffffffff 9 800] ------- [9:255 -1:255 28 0] [0x2 3 1 [17 0] [21 4]] (REQUEST)
r 1.007510703 _18_ RTR  --- 0 AODV 48 [0 ffffffff 9 800] ------- [9:255 -1:255 28 0] [0x2 3 1 [17 0] [21 4]] (REQUEST)
r 1.007510857 _24_ RTR  --- 0 AODV 48 [0 ffffffff 9 800] ------- [9:255 -1:255 28 0] [0x2 3 1 [17 0] [21 4]] (REQUEST)
r 1.007510857 _15_ RTR  --- 0 AODV 48 [0 ffffffff 9 800] ------- [9:255 -1:255 28 0] [0x2 3 1 [17 0] [21 4]] (REQUEST)
r 1.007510873 _6_ RTR  --- 0 AODV 48 [0 ffffffff 9 800] ------- [9:255 -1:255 28 0] [0x2 3 1 [17 0] [21 4]] (REQUEST)
r 1.007510938 _7_ RTR  --- 0 AODV 48 [0 ffffffff 9 800] ------- [9:255 -1:255 28 0] [0x2 3 1 [17 0] [21 4]] (REQUEST)
r 1.007510969 _4_ RTR  --- 0 AODV 48 [0 ffffffff 9 800] ------- [9:255 -1:255 28 0] [0x2 3 1 [17 0] [21 4]] (REQUEST)
r 1.007510993 _13_ RTR  --- 0 AODV 48 [0 ffffffff 9 800] ------- [9:255 -1:255 28 0] [0x2 3 1 [17 0] [21 4]] (REQUEST)
r 1.007511019 _22_ RTR  --- 0 AODV 48 [0 ffffffff 9 800] ------- [9:255 -1:255 28 0] [0x2 3 1 [17 0] [21 4]] (REQUEST)
r 1.007511026 _23_ RTR  --- 0 AODV 48 [0 ffffffff 9 800] ------- [9:255 -1:255 28 0] [0x2 3 1 [17 0] [21 4]] (REQUEST)
r 1.007511033 _10_ RTR  --- 0 AODV 48 [0 ffffffff 9 800] ------- [9:255 -1:255 28 0] [0x2 3 1 [17 0] [21 4]] (REQUEST)
s 1.007954886 _8_ RTR  --- 0 AODV 48 [0 ffffffff 4 800] ------- [8:255 -1:255 27 0] [0x2 4 1 [17 0] [21 4]] (REQUEST)
s 1.008120360 _3_ MAC  --- 0 AODV 106 [0 ffffffff 3 800] ------- [3:255 -1:255 27 0] [0x2 4 1 [17 0] [21 4]] (REQUEST)
s 1.008844460 _10_ RTR  --- 0 AODV 48 [0 ffffffff 12 800] ------- [10:255 -1:255 27 0] [0x2 4 1 [17 0] [21 4]] (REQUEST)
s 1.008861348 _0_ RTR  --- 0 AODV 48 [0 ffffffff 4 800] ------- [0:255 -1:255 27 0] [0x2 4 1 [17 0] [21 4]] (REQUEST)
r 1.008968664 _0_ MAC  --- 0 AODV 48 [0 ffffffff 3 800] ------- [3:255 -1:255 27 0] [0x2 4 1 [17 0] [21 4]] (REQUEST)
r 1.008968772 _2_ MAC  --- 0 AODV 48 [0 ffffffff 3 800] ------- [3:255 -1:255 27 0] [0x2 4 1 [17 0] [21 4]] (REQUEST)
r 1.008968800 _4_ MAC  --- 0 AODV 48 [0 ffffffff 3 800] ------- [3:255 -1:255 27 0] [0x2 4 1 [17 0] [21 4]] (REQUEST)
r 1.008968814 _5_ MAC  --- 0 AODV 48 [0 ffffffff 3 800] ------- [3:255 -1:255 27 0] [0x2 4 1 [17 0] [21 4]] (REQUEST)
r 1.008968959 _8_ MAC  --- 0 AODV 48 [0 ffffffff 3 800] ------- [3:255 -1:255 27 0] [0x2 4 1 [17 0] [21 4]] (REQUEST)
r 1.008969024 _7_ MAC  --- 0 AODV 48 [0 ffffffff 3 800] ------- [3:255 -1:255 27 0] [0x2 4 1 [17 0] [21 4]] (REQUEST)
r 1.008969035 _1_ MAC  --- 0 AODV 48 [0 ffffffff 3 800] ------- [3:255 -1:255 27 0] [0x2 4 1 [17 0] [21 4]] (REQUEST)
r 1.008969105 _18_ MAC  --- 0 AODV 48 [0 ffffffff 3 800] ------- [3:255 -1:255 27 0] [0x2 4 1 [17 0] [21 4]] (REQUEST)
r 1.008969126 _19_ MAC  --- 0 AODV 48 [0 ffffffff 3 800] ------- [3:255 -1:255 27 0] [0x2 4 1 [17 0] [21 4]] (REQUEST)
r 1.008969161 _17_ MAC  --- 0 AODV 48 [0 ffffffff 3 800] ------- [3:255 -1:255 27 0] [0x2 4 1 [17 0] [21 4]] (REQUEST)
r 1.008993664 _0_ RTR  --- 0 AODV 48 [0 ffffffff 3 800] ------- [3:255 -1:255 27 0] [0x2 4 1 [17 0] [21 4]] (REQUEST)
r 1.008993772 _2_ RTR  --- 0 AODV 48 [0 ffffffff 3 800] ------- [3:255 -1:255 27 0] [0x2 4 1 [17 0] [21 4]] (REQUEST)
r 1.008993800 _4_ RTR  --- 0 AODV 48 [0 ffffffff 3 800] ------- [3:255 -1:255 27 0] [0x2 4 1 [17 0] [21 4]] (REQUEST)
r 1.008993814 _5_ RTR  --- 0 AODV 48 [0 ffffffff 3 800] ------- [3:255 -1:255 27 0] [0x2 4 1 [17 0] [21 4]] (REQUEST)
r 1.008993959 _8_ RTR  --- 0 AODV 48 [0 ffffffff 3 800] ------- [3:255 -1:255 27 0] [0x2 4 1 [17 0] [21 4]] (REQUEST)
r 1.008994024 _7_ RTR  --- 0 AODV 48 [0 ffffffff 3 800] ------- [3:255 -1:255 27 0] [0x2 4 1 [17 0] [21 4]] (REQUEST)
r 1.008994035 _1_ RTR  --- 0 AODV 48 [0 ffffffff 3 800] ------- [3:255 -1:255 27 0] [0x2 4 1 [17 0] [21 4]] (REQUEST)
r 1.008994105 _18_ RTR  --- 0 AODV 48 [0 ffffffff 3 800] ------- [3:255 -1:255 27 0] [0x2 4 1 [17 0] [21 4]] (REQUEST)
r 1.008994126 _19_ RTR  --- 0 AODV 48 [0 ffffffff 3 800] ------- [3:255 -1:255 27 0] [0x2 4 1 [17 0] [21 4]] (REQUEST)
r 1.008994161 _17_ RTR  --- 0 AODV 48 [0 ffffffff 3 800] ------- [3:255 -1:255 27 0] [0x2 4 1 [17 0] [21 4]] (REQUEST)
s 1.008994161 _17_ RTR  --- 0 AODV 44 [0 0 0 0] ------- [17:255 21:255 30 3] [0x4 1 [17 4] 10.000000] (REPLY)
s 1.009047554 _24_ RTR  --- 0 AODV 48 [0 ffffffff 16 800] ------- [24:255 -1:255 28 0] [0x2 3 1 [17 0] [21 4]] (REQUEST)
s 1.009118664 _0_ MAC  --- 0 AODV 106 [0 ffffffff 0 800] ------- [0:255 -1:255 27 0] [0x2 4 1 [17 0] [21 4]] (REQUEST)
s 1.009400087 _23_ RTR  --- 0 AODV 48 [0 ffffffff 15 800] ------- [23:255 -1:255 29 0] [0x2 2 1 [17 0] [21 4]] (REQUEST)
s 1.009460889 _5_ RTR  --- 0 AODV 48 [0 ffffffff 4 800] ------- [5:255 -1:255 27 0] [0x2 4 1 [17 0] [21 4]] (REQUEST)
s 1.009584055 _24_ MAC  --- 0 AODV 106 [0 ffffffff 18 800] ------- [24:255 -1:255 28 0] [0x2 3 1 [17 0] [21 4]] (REQUEST)
r 1.009966967 _3_ MAC  --- 0 AODV 48 [0 ffffffff 0 800] ------- [0:255 -1:255 27 0] [0x2 4 1 [17 0] [21 4]] (REQUEST)
r 1.009967163 _2_ MAC  --- 0 AODV 48 [0 ffffffff 0 800] ------- [0:255 -1:255 27 0] [0x2 4 1 [17 0] [21 4]] (REQUEST)
r 1.009967313 _4_ MAC  --- 0 AODV 48 [0 ffffffff 0 800] ------- [0:255 -1:255 27 0] [0x2 4 1 [17 0] [21 4]] (REQUEST)
r 1.009967345 _5_ MAC  --- 0 AODV 48 [0 ffffffff 0 800] ------- [0:255 -1:255 27 0] [0x2 4 1 [17 0] [21 4]] (REQUEST)
r 1.009967357 _19_ MAC  --- 0 AODV 48 [0 ffffffff 0 800] ------- [0:255 -1:255 27 0] [0x2 4 1 [17 0] [21 4]] (REQUEST)
r 1.009967369 _1_ MAC  --- 0 AODV 48 [0 ffffffff 0 800] ------- [0:255 -1:255 27 0] [0x2 4 1 [17 0] [21 4]] (REQUEST)
r 1.009991967 _3_ RTR  --- 0 AODV 48 [0 ffffffff 0 800] ------- [0:255 -1:255 27 0] [0x2 4 1 [17 0] [21 4]] (REQUEST)
r 1.009992163 _2_ RTR  --- 0 AODV 48 [0 ffffffff 0 800] ------- [0:255 -1:255 27 0] [0x2 4 1 [17 0] [21 4]] (REQUEST)
r 1.009992313 _4_ RTR  --- 0 AODV 48 [0 ffffffff 0 800] ------- [0:255 -1:255 27 0] [0x2 4 1 [17 0] [21 4]] (REQUEST)
r 1.009992345 _5_ RTR  --- 0 AODV 48 [0 ffffffff 0 800] ------- [0:255 -1:255 27 0] [0x2 4 1 [17 0] [21 4]] (REQUEST)
r 1.009992357 _19_ RTR  --- 0 AODV 48 [0 ffffffff 0 800] ------- [0:255 -1:255 27 0] [0x2 4 1 [17 0] [21 4]] (REQUEST)
r 1.009992369 _1_ RTR  --- 0 AODV 48 [0 ffffffff 0 800] ------- [0:255 -1:255 27 0] [0x2 4 1 [17 0] [21 4]] (REQUEST)
s 1.010158127 _19_ RTR  --- 0 AODV 48 [0 ffffffff f 800] ------- [19:255 -1:255 28 0] [0x2 3 1 [17 0] [21 4]] (REQUEST)
r 1.010432431 _23_ MAC  --- 0 AODV 48 [0 ffffffff 18 800] ------- [24:255 -1:255 28 0] [0x2 3 1 [17 0] [21 4]] (REQUEST)
D 1.010432672 _9_ MAC  COL 0 AODV 106 [0 ffffffff 18 800] ------- [24:255 -1:255 28 0] [0x2 3 1 [17 0] [21 4]] (REQUEST)
D 1.010432679 _22_ MAC  COL 0 AODV 106 [0 ffffffff 18 800] ------- [24:255 -1:255 28 0] [0x2 3 1 [17 0] [21 4]] (REQUEST)
D 1.010432709 _12_ MAC  COL 0 AODV 106 [0 ffffffff 18 800] ------- [24:255 -1:255 28 0] [0x2 3 1 [17 0] [21 4]] (REQUEST)
D 1.010432886 _15_ MAC  COL 0 AODV 106 [0 ffffffff 18 800] ------- [24:255 -1:255 28 0] [0x2 3 1 [17 0] [21 4]] (REQUEST)
r 1.010457431 _23_ RTR  --- 0 AODV 48 [0 ffffffff 18 800] ------- [24:255 -1:255 28 0] [0x2 3 1 [17 0] [21 4]] (REQUEST)
s 1.010541591 _17_ MAC  --- 0 ARP 86 [0 ffffffff 11 806] ------- [REQUEST 17/17 0/3]
s 1.010560604 _2_ RTR  --- 0 AODV 48 [0 ffffffff 4 800] ------- [2:255 -1:255 27 0] [0x2 4 1 [17 0] [21 4]] (REQUEST)
s 1.010962431 _23_ MAC  --- 0 AODV 106 [0 ffffffff 17 800] ------- [23:255 -1:255 29 0] [0x2 2 1 [17 0] [21 4]] (REQUEST)
r 1.011229885 _16_ MAC  --- 0 ARP 28 [0 ffffffff 11 806] ------- [REQUEST 17/17 0/3]
r 1.011230007 _5_ MAC  --- 0 ARP 28 [0 ffffffff 11 806] ------- [REQUEST 17/17 0/3]
r 1.011230020 _2_ MAC  --- 0 ARP 28 [0 ffffffff 11 806] ------- [REQUEST 17/17 0/3]
r 1.011230194 _8_ MAC  --- 0 ARP 28 [0 ffffffff 11 806] ------- [REQUEST 17/17 0/3]
r 1.011230309 _11_ MAC  --- 0 ARP 28 [0 ffffffff 11 806] ------- [REQUEST 17/17 0/3]
r 1.011230392 _3_ MAC  --- 0 ARP 28 [0 ffffffff 11 806] ------- [REQUEST 17/17 0/3]
s 1.011340007 _5_ MAC  --- 0 AODV 106 [0 ffffffff 5 800] ------- [5:255 -1:255 27 0] [0x2 4 1 [17 0] [21 4]] (REQUEST)
D 1.011341223 _9_ MAC  COL 0 AODV 106 [0 ffffffff 17 800] ------- [23:255 -1:255 29 0] [0x2 2 1 [17 0] [21 4]] (REQUEST)
r 1.011810752 _22_ MAC  --- 0 AODV 48 [0 ffffffff 17 800] ------- [23:255 -1:255 29 0] [0x2 2 1 [17 0] [21 4]] (REQUEST)
r 1.011810807 _24_ MAC  --- 0 AODV 48 [0 ffffffff 17 800] ------- [23:255 -1:255 29 0] [0x2 2 1 [17 0] [21 4]] (REQUEST)
r 1.011810962 _21_ MAC  --- 0 AODV 48 [0 ffffffff 17 800] ------- [23:255 -1:255 29 0] [0x2 2 1 [17 0] [21 4]] (REQUEST)
D 1.011811114 _15_ MAC  COL 0 AODV 106 [0 ffffffff 17 800] ------- [23:255 -1:255 29 0] [0x2 2 1 [17 0] [21 4]] (REQUEST)
r 1.011835752 _22_ RTR  --- 0 AODV 48 [0 ffffffff 17 800] ------- [23:255 -1:255 29 0] [0x2 2 1 [17 0] [21 4]] (REQUEST)
r 1.011835807 _24_ RTR  --- 0 AODV 48 [0 ffffffff 17 800] ------- [23:255 -1:255 29 0] [0x2 2 1 [17 0] [21 4]] (REQUEST)
r 1.011835962 _21_ RTR  --- 0 AODV 48 [0 ffffffff 17 800] ------- [23:255 -1:255 29 0] [0x2 2 1 [17 0] [21 4]] (REQUEST)
r 1.012188287 _8_ MAC  --- 0 AODV 48 [0 ffffffff 5 800] ------- [5:255 -1:255 27 0] [0x2 4 1 [17 0] [21 4]] (REQUEST)
r 1.012188306 _2_ MAC  --- 0 AODV 48 [0 ffffffff 5 800] ------- [5:255 -1:255 27 0] [0x2 4 1 [17 0] [21 4]] (REQUEST)
r 1.012188423 _17_ MAC  --- 0 AODV 48 [0 ffffffff 5 800] ------- [5:255 -1:255 27 0] [0x2 4 1 [17 0] [21 4]] (REQUEST)
r 1.012188461 _3_ MAC  --- 0 AODV 48 [0 ffffffff 5 800] ------- [5:255 -1:255 27 0] [0x2 4 1 [17 0] [21 4]] (REQUEST)
r 1.012188463 _16_ MAC  --- 0 AODV 48 [0 ffffffff 5 800] ------- [5:255 -1:255 27 0] [0x2 4 1 [17 0] [21 4]] (REQUEST)
D 1.012188557 _7_ MAC  COL 0 AODV 106 [0 ffffffff 5 800] ------- [5:255 -1:255 27 0] [0x2 4 1 [17 0] [21 4]] (REQUEST)
r 1.012188601 _11_ MAC  --- 0 AODV 48 [0 ffffffff 5 800] ------- [5:255 -1:255 27 0] [0x2 4 1 [17 0] [21 4]] (REQUEST)
r 1.012188689 _0_ MAC  --- 0 AODV 48 [0 ffffffff 5 800] ------- [5:255 -1:255 27 0] [0x2 4 1 [17 0] [21 4]] (REQUEST)
D 1.012188698 _10_ MAC  COL 0 AODV 106 [0 ffffffff 5 800] ------- [5:255 -1:255 27 0] [0x2 4 1 [17 0] [21 4]] (REQUEST)
D 1.012188751 _4_ MAC  COL 0 AODV 106 [0 ffffffff 5 800] ------- [5:255 -1:255 27 0] [0x2 4 1 [17 0] [21 4]] (REQUEST)
D 1.012188764 _18_ MAC  COL 0 AODV 106 [0 ffffffff 5 800] ------- [5:255 -1:255 27 0] [0x2 4 1 [17 0] [21 4]] (REQUEST)
r 1.012213287 _8_ RTR  --- 0 AODV 48 [0 ffffffff 5 800] ------- [5:255 -1:255 27 0] [0x2 4 1 [17 0] [21 4]] (REQUEST)
r 1.012213306 _2_ RTR  --- 0 AODV 48 [0 ffffffff 5 800] ------- [5:255 -1:255 27 0] [0x2 4 1 [17 0] [21 4]] (REQUEST)
r 1.012213423 _17_ RTR  --- 0 AODV 48 [0 ffffffff 5 800] ------- [5:255 -1:255 27 0] [0x2 4 1 [17 0] [21 4]] (REQUEST)
r 1.012213461 _3_ RTR  --- 0 AODV 48 [0 ffffffff 5 800] ------- [5:255 -1:255 27 0] [0x2 4 1 [17 0] [21 4]] (REQUEST)
r 1.012213463 _16_ RTR  --- 0 AODV 48 [0 ffffffff 5 800] ------- [5:255 -1:255 27 0] [0x2 4 1 [17 0] [21 4]] (REQUEST)
r 1.012213601 _11_ RTR  --- 0 AODV 48 [0 ffffffff 5 800] ------- [5:255 -1:255 27 0] [0x2 4 1 [17 0] [21 4]] (REQUEST)
r 1.012213689 _0_ RTR  --- 0 AODV 48 [0 ffffffff 5 800] ------- [5:255 -1:255 27 0] [0x2 4 1 [17 0] [21 4]] (REQUEST)
s 1.012338287 _8_ MAC  --- 0 AODV 106 [0 ffffffff 8 800] ------- [8:255 -1:255 27 0] [0x2 4 1 [17 0] [21 4]] (REQUEST)
r 1.013186567 _5_ MAC  --- 0 AODV 48 [0 ffffffff 8 800] ------- [8:255 -1:255 27 0] [0x2 4 1 [17 0] [21 4]] (REQUEST)
r 1.013186606 _7_ MAC  --- 0 AODV 48 [0 ffffffff 8 800] ------- [8:255 -1:255 27 0] [0x2 4 1 [17 0] [21 4]] (REQUEST)
r 1.013186665 _11_ MAC  --- 0 AODV 48 [0 ffffffff 8 800] ------- [8:255 -1:255 27 0] [0x2 4 1 [17 0] [21 4]] (REQUEST)
r 1.013186698 _10_ MAC  --- 0 AODV 48 [0 ffffffff 8 800] ------- [8:255 -1:255 27 0] [0x2 4 1 [17 0] [21 4]] (REQUEST)
r 1.013186778 _16_ MAC  --- 0 AODV 48 [0 ffffffff 8 800] ------- [8:255 -1:255 27 0] [0x2 4 1 [17 0] [21 4]] (REQUEST)
r 1.013186843 _18_ MAC  --- 0 AODV 48 [0 ffffffff 8 800] ------- [8:255 -1:255 27 0] [0x2 4 1 [17 0] [21 4]] (REQUEST)
r 1.013186863 _2_ MAC  --- 0 AODV 48 [0 ffffffff 8 800] ------- [8:255 -1:255 27 0] [0x2 4 1 [17 0] [21 4]] (REQUEST)
r 1.013186886 _3_ MAC  --- 0 AODV 48 [0 ffffffff 8 800] ------- [8:255 -1:255 27 0] [0x2 4 1 [17 0] [21 4]] (REQUEST)
r 1.013186890 _17_ MAC  --- 0 AODV 48 [0 ffffffff 8 800] ------- [8:255 -1:255 27 0] [0x2 4 1 [17 0] [21 4]] (REQUEST)
r 1.013186943 _14_ MAC  --- 0 AODV 48 [0 ffffffff 8 800] ------- [8:255 -1:255 27 0] [0x2 4 1 [17 0] [21 4]] (REQUEST)
r 1.013186995 _13_ MAC  --- 0 AODV 48 [0 ffffffff 8 800] ------- [8:255 -1:255 27 0] [0x2 4 1 [17 0] [21 4]] (REQUEST)
r 1.013187005 _4_ MAC  --- 0 AODV 48 [0 ffffffff 8 800] ------- [8:255 -1:255 27 0] [0x2 4 1 [17 0] [21 4]] (REQUEST)
r 1.013187033 _6_ MAC  --- 0 AODV 48 [0 ffffffff 8 800] ------- [8:255 -1:255 27 0] [0x2 4 1 [17 0] [21 4]] (REQUEST)
s 1.013205826 _13_ RTR  --- 0 AODV 48 [0 ffffffff 12 800] ------- [13:255 -1:255 27 0] [0x2 4 1 [17 0] [21 4]] (REQUEST)
r 1.013211567 _5_ RTR  --- 0 AODV 48 [0 ffffffff 8 800] ------- [8:255 -1:255 27 0] [0x2 4 1 [17 0] [21 4]] (REQUEST)
r 1.013211606 _7_ RTR  --- 0 AODV 48 [0 ffffffff 8 800] ------- [8:255 -1:255 27 0] [0x2 4 1 [17 0] [21 4]] (REQUEST)
r 1.013211665 _11_ RTR  --- 0 AODV 48 [0 ffffffff 8 800] ------- [8:255 -1:255 27 0] [0x2 4 1 [17 0] [21 4]] (REQUEST)
r 1.013211698 _10_ RTR  --- 0 AODV 48 [0 ffffffff 8 800] ------- [8:255 -1:255 27 0] [0x2 4 1 [17 0] [21 4]] (REQUEST)
r 1.013211778 _16_ RTR  --- 0 AODV 48 [0 ffffffff 8 800] ------- [8:255 -1:255 27 0] [0x2 4 1 [17 0] [21 4]] (REQUEST)
r 1.013211843 _18_ RTR  --- 0 AODV 48 [0 ffffffff 8 800] ------- [8:255 -1:255 27 0] [0x2 4 1 [17 0] [21 4]] (REQUEST)
r 1.013211863 _2_ RTR  --- 0 AODV 48 [0 ffffffff 8 800] ------- [8:255 -1:255 27 0] [0x2 4 1 [17 0] [21 4]] (REQUEST)
r 1.013211886 _3_ RTR  --- 0 AODV 48 [0 ffffffff 8 800] ------- [8:255 -1:255 27 0] [0x2 4 1 [17 0] [21 4]] (REQUEST)
r 1.013211890 _17_ RTR  --- 0 AODV 48 [0 ffffffff 8 800] ------- [8:255 -1:255 27 0] [0x2 4 1 [17 0] [21 4]] (REQUEST)
r 1.013211943 _14_ RTR  --- 0 AODV 48 [0 ffffffff 8 800] ------- [8:255 -1:255 27 0] [0x2 4 1 [17 0] [21 4]] (REQUEST)
r 1.013211995 _13_ RTR  --- 0 AODV 48 [0 ffffffff 8 800] ------- [8:255 -1:255 27 0] [0x2 4 1 [17 0] [21 4]] (REQUEST)
r 1.013212005 _4_ RTR  --- 0 AODV 48 [0 ffffffff 8 800] ------- [8:255 -1:255 27 0] [0x2 4 1 [17 0] [21 4]] (REQUEST)
r 1.013212033 _6_ RTR  --- 0 AODV 48 [0 ffffffff 8 800] ------- [8:255 -1:255 27 0] [0x2 4 1 [17 0] [21 4]] (REQUEST)
s 1.013356863 _2_ MAC  --- 0 AODV 106 [0 ffffffff 2 800] ------- [2:255 -1:255 27 0] [0x2 4 1 [17 0] [21 4]] (REQUEST)
s 1.013444138 _7_ RTR  --- 0 AODV 48 [0 ffffffff 4 800] ------- [7:255 -1:255 27 0] [0x2 4 1 [17 0] [21 4]] (REQUEST)
s 1.014054668 _12_ RTR  --- 0 AODV 48 [0 ffffffff 12 800] ------- [12:255 -1:255 27 0] [0x2 4 1 [17 0] [21 4]] (REQUEST)
r 1.014205161 _5_ MAC  --- 0 AODV 48 [0 ffffffff 2 800] ------- [2:255 -1:255 27 0] [0x2 4 1 [17 0] [21 4]] (REQUEST)
r 1.014205275 _3_ MAC  --- 0 AODV 48 [0 ffffffff 2 800] ------- [2:255 -1:255 27 0] [0x2 4 1 [17 0] [21 4]] (REQUEST)
r 1.014205291 _17_ MAC  --- 0 AODV 48 [0 ffffffff 2 800] ------- [2:255 -1:255 27 0] [0x2 4 1 [17 0] [21 4]] (REQUEST)
r 1.014205362 _0_ MAC  --- 0 AODV 48 [0 ffffffff 2 800] ------- [2:255 -1:255 27 0] [0x2 4 1 [17 0] [21 4]] (REQUEST)