M 0.00000 0 (663.00, 484.00, 0.00), (0.00, 0.00), 0.00
M 0.00000 21 (263.00, 306.00, 0.00), (100.00, 100.00), 40.00
M 0.00000 20 (350.00, 434.00, 0.00), (150.00, 175.00), 40.00
M 0.00000 8 (761.00, 234.00, 0.00), (335.00, 500.00), 5.00
M 0.00000 11 (825.00, 140.00, 0.00), (565.00, 420.00), 5.00
M 0.00000 17 (908.00, 344.00, 0.00), (765.00, 320.00), 5.00
M 0.00000 25 (250.00, 404.00, 0.00), (343.00, 576.00), 5.00
M 1.00000 2 (791.00, 406.00, 0.00), (615.00, 340.00), 5.00
M 1.00000 3 (668.00, 393.00, 0.00), (680.00, 458.00), 5.00
M 1.00000 29 (36.00, 431.00, 0.00), (185.00, 120.00), 5.00
M 1.00000 12 (509.00, 34.00, 0.00), (700.00, 20.00), 5.00
M 1.00000 23 (240.00, 115.00, 0.00), (115.00, 85.00), 5.00
M 1.00000 14 (822.00, 51.00, 0.00), (195.00, 185.00), 5.00
M 1.00000 15 (373.00, 271.00, 0.00), (387.00, 590.00), 5.00
M 1.00000 18 (600.00, 180.00, 0.00), (109.00, 20.00), 5.00
M 1.00000 19 (455.00, 479.00, 0.00), (175.00, 185.00), 5.00
M 1.00000 26 (463.00, 420.00, 0.00), (764.00, 424.00), 5.00
M 1.00000 27 (461.00, 122.00, 0.00), (676.00, 464.00), 5.00
s 1.000000000 _21_ AGT  --- 0 cbr 1000 [0 0 0 0] ------- [21:0 29:0 32 0] [0] 0 0
r 1.000000000 _21_ RTR  --- 0 cbr 1000 [0 0 0 0] ------- [21:0 29:0 32 0] [0] 0 0
s 1.000000000 _21_ RTR  --- 0 AODV 48 [0 0 0 0] ------- [21:255 -1:255 30 0] [0x2 1 1 [29 0] [21 4]] (REQUEST)
s 1.000535000 _21_ MAC  --- 0 AODV 106 [0 ffffffff 15 800] ------- [21:255 -1:255 30 0] [0x2 1 1 [29 0] [21 4]] (REQUEST)
r 1.001383232 _22_ MAC  --- 0 AODV 48 [0 ffffffff 15 800] ------- [21:255 -1:255 30 0] [0x2 1 1 [29 0] [21 4]] (REQUEST)
r 1.001383448 _25_ MAC  --- 0 AODV 48 [0 ffffffff 15 800] ------- [21:255 -1:255 30 0] [0x2 1 1 [29 0] [21 4]] (REQUEST)
r 1.001383450 _15_ MAC  --- 0 AODV 48 [0 ffffffff 15 800] ------- [21:255 -1:255 30 0] [0x2 1 1 [29 0] [21 4]] (REQUEST)
r 1.001383514 _28_ MAC  --- 0 AODV 48 [0 ffffffff 15 800] ------- [21:255 -1:255 30 0] [0x2 1 1 [29 0] [21 4]] (REQUEST)
r 1.001383516 _20_ MAC  --- 0 AODV 48 [0 ffffffff 15 800] ------- [21:255 -1:255 30 0] [0x2 1 1 [29 0] [21 4]] (REQUEST)
r 1.001383532 _23_ MAC  --- 0 AODV 48 [0 ffffffff 15 800] ------- [21:255 -1:255 30 0] [0x2 1 1 [29 0] [21 4]] (REQUEST)
r 1.001408232 _22_ RTR  --- 0 AODV 48 [0 ffffffff 15 800] ------- [21:255 -1:255 30 0] [0x2 1 1 [29 0] [21 4]] (REQUEST)
r 1.001408448 _25_ RTR  --- 0 AODV 48 [0 ffffffff 15 800] ------- [21:255 -1:255 30 0] [0x2 1 1 [29 0] [21 4]] (REQUEST)
r 1.001408450 _15_ RTR  --- 0 AODV 48 [0 ffffffff 15 800] ------- [21:255 -1:255 30 0] [0x2 1 1 [29 0] [21 4]] (REQUEST)
r 1.001408514 _28_ RTR  --- 0 AODV 48 [0 ffffffff 15 800] ------- [21:255 -1:255 30 0] [0x2 1 1 [29 0] [21 4]] (REQUEST)
r 1.001408516 _20_ RTR  --- 0 AODV 48 [0 ffffffff 15 800] ------- [21:255 -1:255 30 0] [0x2 1 1 [29 0] [21 4]] (REQUEST)
r 1.001408532 _23_ RTR  --- 0 AODV 48 [0 ffffffff 15 800] ------- [21:255 -1:255 30 0] [0x2 1 1 [29 0] [21 4]] (REQUEST)
s 1.001550278 _22_ RTR  --- 0 AODV 48 [0 ffffffff 15 800] ------- [22:255 -1:255 29 0] [0x2 2 1 [29 0] [21 4]] (REQUEST)
s 1.001865278 _22_ MAC  --- 0 AODV 106 [0 ffffffff 16 800] ------- [22:255 -1:255 29 0] [0x2 2 1 [29 0] [21 4]] (REQUEST)
s 1.002289675 _25_ RTR  --- 0 AODV 48 [0 ffffffff 15 800] ------- [25:255 -1:255 29 0] [0x2 2 1 [29 0] [21 4]] (REQUEST)
r 1.002713510 _21_ MAC  --- 0 AODV 48 [0 ffffffff 16 800] ------- [22:255 -1:255 29 0] [0x2 2 1 [29 0] [21 4]] (REQUEST)
r 1.002713599 _23_ MAC  --- 0 AODV 48 [0 ffffffff 16 800] ------- [22:255 -1:255 29 0] [0x2 2 1 [29 0] [21 4]] (REQUEST)
r 1.002713705 _15_ MAC  --- 0 AODV 48 [0 ffffffff 16 800] ------- [22:255 -1:255 29 0] [0x2 2 1 [29 0] [21 4]] (REQUEST)
r 1.002713903 _24_ MAC  --- 0 AODV 48 [0 ffffffff 16 800] ------- [22:255 -1:255 29 0] [0x2 2 1 [29 0] [21 4]] (REQUEST)
r 1.002713943 _25_ MAC  --- 0 AODV 48 [0 ffffffff 16 800] ------- [22:255 -1:255 29 0] [0x2 2 1 [29 0] [21 4]] (REQUEST)
r 1.002713957 _20_ MAC  --- 0 AODV 48 [0 ffffffff 16 800] ------- [22:255 -1:255 29 0] [0x2 2 1 [29 0] [21 4]] (REQUEST)
r 1.002713976 _28_ MAC  --- 0 AODV 48 [0 ffffffff 16 800] ------- [22:255 -1:255 29 0] [0x2 2 1 [29 0] [21 4]] (REQUEST)
r 1.002714005 _27_ MAC  --- 0 AODV 48 [0 ffffffff 16 800] ------- [22:255 -1:255 29 0] [0x2 2 1 [29 0] [21 4]] (REQUEST)
r 1.002714058 _9_ MAC  --- 0 AODV 48 [0 ffffffff 16 800] ------- [22:255 -1:255 29 0] [0x2 2 1 [29 0] [21 4]] (REQUEST)
r 1.002738510 _21_ RTR  --- 0 AODV 48 [0 ffffffff 16 800] ------- [22:255 -1:255 29 0] [0x2 2 1 [29 0] [21 4]] (REQUEST)
r 1.002738599 _23_ RTR  --- 0 AODV 48 [0 ffffffff 16 800] ------- [22:255 -1:255 29 0] [0x2 2 1 [29 0] [21 4]] (REQUEST)
r 1.002738705 _15_ RTR  --- 0 AODV 48 [0 ffffffff 16 800] ------- [22:255 -1:255 29 0] [0x2 2 1 [29 0] [21 4]] (REQUEST)
r 1.002738903 _24_ RTR  --- 0 AODV 48 [0 ffffffff 16 800] ------- [22:255 -1:255 29 0] [0x2 2 1 [29 0] [21 4]] (REQUEST)
r 1.002738943 _25_ RTR  --- 0 AODV 48 [0 ffffffff 16 800] ------- [22:255 -1:255 29 0] [0x2 2 1 [29 0] [21 4]] (REQUEST)
r 1.002738957 _20_ RTR  --- 0 AODV 48 [0 ffffffff 16 800] ------- [22:255 -1:255 29 0] [0x2 2 1 [29 0] [21 4]] (REQUEST)
r 1.002738976 _28_ RTR  --- 0 AODV 48 [0 ffffffff 16 800] ------- [22:255 -1:255 29 0] [0x2 2 1 [29 0] [21 4]] (REQUEST)
r 1.002739005 _27_ RTR  --- 0 AODV 48 [0 ffffffff 16 800] ------- [22:255 -1:255 29 0] [0x2 2 1 [29 0] [21 4]] (REQUEST)
r 1.002739058 _9_ RTR  --- 0 AODV 48 [0 ffffffff 16 800] ------- [22:255 -1:255 29 0] [0x2 2 1 [29 0] [21 4]] (REQUEST)
s 1.003123943 _25_ MAC  --- 0 AODV 106 [0 ffffffff 19 800] ------- [25:255 -1:255 29 0] [0x2 2 1 [29 0] [21 4]] (REQUEST)
s 1.003167003 _9_ RTR  --- 0 AODV 48 [0 ffffffff 16 800] ------- [9:255 -1:255 28 0] [0x2 3 1 [29 0] [21 4]] (REQUEST)
r 1.003972188 _20_ MAC  --- 0 AODV 48 [0 ffffffff 19 800] ------- [25:255 -1:255 29 0] [0x2 2 1 [29 0] [21 4]] (REQUEST)
r 1.003972392 _21_ MAC  --- 0 AODV 48 [0 ffffffff 19 800] ------- [25:255 -1:255 29 0] [0x2 2 1 [29 0] [21 4]] (REQUEST)
r 1.003972496 _28_ MAC  --- 0 AODV 48 [0 ffffffff 19 800] ------- [25:255 -1:255 29 0] [0x2 2 1 [29 0] [21 4]] (REQUEST)
r 1.003972553 _15_ MAC  --- 0 AODV 48 [0 ffffffff 19 800] ------- [25:255 -1:255 29 0] [0x2 2 1 [29 0] [21 4]] (REQUEST)
r 1.003972609 _22_ MAC  --- 0 AODV 48 [0 ffffffff 19 800] ------- [25:255 -1:255 29 0] [0x2 2 1 [29 0] [21 4]] (REQUEST)
r 1.003972647 _26_ MAC  --- 0 AODV 48 [0 ffffffff 19 800] ------- [25:255 -1:255 29 0] [0x2 2 1 [29 0] [21 4]] (REQUEST)
r 1.003972656 _1_ MAC  --- 0 AODV 48 [0 ffffffff 19 800] ------- [25:255 -1:255 29 0] [0x2 2 1 [29 0] [21 4]] (REQUEST)
r 1.003972659 _19_ MAC  --- 0 AODV 48 [0 ffffffff 19 800] ------- [25:255 -1:255 29 0] [0x2 2 1 [29 0] [21 4]] (REQUEST)
r 1.003972669 _29_ MAC  --- 0 AODV 48 [0 ffffffff 19 800] ------- [25:255 -1:255 29 0] [0x2 2 1 [29 0] [21 4]] (REQUEST)
r 1.003997188 _20_ RTR  --- 0 AODV 48 [0 ffffffff 19 800] ------- [25:255 -1:255 29 0] [0x2 2 1 [29 0] [21 4]] (REQUEST)
r 1.003997392 _21_ RTR  --- 0 AODV 48 [0 ffffffff 19 800] ------- [25:255 -1:255 29 0] [0x2 2 1 [29 0] [21 4]] (REQUEST)
r 1.003997496 _28_ RTR  --- 0 AODV 48 [0 ffffffff 19 800] ------- [25:255 -1:255 29 0] [0x2 2 1 [29 0] [21 4]] (REQUEST)
r 1.003997553 _15_ RTR  --- 0 AODV 48 [0 ffffffff 19 800] ------- [25:255 -1:255 29 0] [0x2 2 1 [29 0] [21 4]] (REQUEST)
r 1.003997609 _22_ RTR  --- 0 AODV 48 [0 ffffffff 19 800] ------- [25:255 -1:255 29 0] [0x2 2 1 [29 0] [21 4]] (REQUEST)
r 1.003997647 _26_ RTR  --- 0 AODV 48 [0 ffffffff 19 800] ------- [25:255 -1:255 29 0] [0x2 2 1 [29 0] [21 4]] (REQUEST)
r 1.003997656 _1_ RTR  --- 0 AODV 48 [0 ffffffff 19 800] ------- [25:255 -1:255 29 0] [0x2 2 1 [29 0] [21 4]] (REQUEST)
s 1.003997656 _1_ RTR  --- 0 AODV 44 [0 0 0 0] ------- [1:255 21:255 30 25] [0x4 1 [29 4] 10.000000] (REPLY)
r 1.003997659 _19_ RTR  --- 0 AODV 48 [0 ffffffff 19 800] ------- [25:255 -1:255 29 0] [0x2 2 1 [29 0] [21 4]] (REQUEST)
r 1.003997669 _29_ RTR  --- 0 AODV 48 [0 ffffffff 19 800] ------- [25:255 -1:255 29 0] [0x2 2 1 [29 0] [21 4]] (REQUEST)
s 1.003997669 _29_ RTR  --- 0 AODV 44 [0 0 0 0] ------- [29:255 21:255 30 25] [0x4 1 [29 4] 10.000000] (REPLY)
s 1.004380459 _27_ RTR  --- 0 AODV 48 [0 ffffffff 16 800] ------- [27:255 -1:255 28 0] [0x2 3 1 [29 0] [21 4]] (REQUEST)
s 1.004392669 _29_ MAC  --- 0 ARP 86 [0 ffffffff 1d 806] ------- [REQUEST 29/29 0/25]
s 1.004538134 _20_ RTR  --- 0 AODV 48 [0 ffffffff 15 800] ------- [20:255 -1:255 29 0] [0x2 2 1 [29 0] [21 4]] (REQUEST)
r 1.005081031 _28_ MAC  --- 0 ARP 28 [0 ffffffff 1d 806] ------- [REQUEST 29/29 0/25]
r 1.005081394 _25_ MAC  --- 0 ARP 28 [0 ffffffff 1d 806] ------- [REQUEST 29/29 0/25]
s 1.005156394 _25_ MAC  --- 0 RTS 44 [52e 1d 19 0] 
r 1.005509119 _29_ MAC  --- 0 RTS 44 [52e 1d 19 0] 
s 1.005519119 _29_ MAC  --- 0 CTS 38 [3f4 19 0 0] 
s 1.005820183 _15_ RTR  --- 0 AODV 48 [0 ffffffff 15 800] ------- [15:255 -1:255 29 0] [0x2 2 1 [29 0] [21 4]] (REQUEST)
r 1.005823844 _25_ MAC  --- 0 CTS 38 [3f4 19 0 0] 
s 1.005833844 _25_ MAC  --- 0 ARP 86 [13a 1d 19 806] ------- [REPLY 25/25 29/29]
r 1.006522569 _29_ MAC  --- 0 ARP 28 [13a 1d 19 806] ------- [REPLY 25/25 29/29]
s 1.006532569 _29_ MAC  --- 0 ACK 38 [0 19 0 0] 
r 1.006837295 _25_ MAC  --- 0 ACK 38 [0 19 0 0] 
s 1.007086569 _29_ MAC  --- 0 RTS 44 [5ae 19 1d 0] 
r 1.007439295 _25_ MAC  --- 0 RTS 44 [5ae 19 1d 0] 
s 1.007449295 _25_ MAC  --- 0 CTS 38 [474 1d 0 0] 
r 1.007754020 _29_ MAC  --- 0 CTS 38 [474 1d 0 0] 
s 1.007764020 _29_ MAC  --- 0 AODV 102 [13a 19 1d 800] ------- [29:255 21:255 30 25] [0x4 1 [29 4] 10.000000] (REPLY)
s 1.008234226 _19_ RTR  --- 0 AODV 48 [0 ffffffff 19 800] ------- [19:255 -1:255 28 0] [0x2 3 1 [29 0] [21 4]] (REQUEST)
r 1.008580745 _25_ MAC  --- 0 AODV 44 [13a 19 1d 800] ------- [29:255 21:255 30 25] [0x4 1 [29 4] 10.000000] (REPLY)
s 1.008590745 _25_ MAC  --- 0 ACK 38 [0 1d 0 0] 
r 1.008605745 _25_ RTR  --- 0 AODV 44 [13a 19 1d 800] ------- [29:255 21:255 30 25] [0x4 1 [29 4] 10.000000] (REPLY)
f 1.008605745 _25_ RTR  --- 0 AODV 44 [13a 19 1d 800] ------- [29:255 21:255 29 21] [0x4 2 [29 4] 10.000000] (REPLY)
r 1.008895470 _29_ MAC  --- 0 ACK 38 [0 1d 0 0] 
s 1.009135455 _1_ MAC  --- 0 ARP 86 [0 ffffffff 1 806] ------- [REQUEST 1/1 0/25]
s 1.009400068 _28_ RTR  --- 0 AODV 48 [0 ffffffff 15 800] ------- [28:255 -1:255 29 0] [0x2 2 1 [29 0] [21 4]] (REQUEST)
s 1.009573293 _23_ RTR  --- 0 AODV 48 [0 ffffffff 15 800] ------- [23:255 -1:255 29 0] [0x2 2 1 [29 0] [21 4]] (REQUEST)
r 1.009823500 _26_ MAC  --- 0 ARP 28 [0 ffffffff 1 806] ------- [REQUEST 1/1 0/25]
r 1.009823698 _19_ MAC  --- 0 ARP 28 [0 ffffffff 1 806] ------- [REQUEST 1/1 0/25]
r 1.009823877 _4_ MAC  --- 0 ARP 28 [0 ffffffff 1 806] ------- [REQUEST 1/1 0/25]
r 1.009823924 _20_ MAC  --- 0 ARP 28 [0 ffffffff 1 806] ------- [REQUEST 1/1 0/25]
r 1.009824004 _15_ MAC  --- 0 ARP 28 [0 ffffffff 1 806] ------- [REQUEST 1/1 0/25]
r 1.009824130 _3_ MAC  --- 0 ARP 28 [0 ffffffff 1 806] ------- [REQUEST 1/1 0/25]
r 1.009824160 _0_ MAC  --- 0 ARP 28 [0 ffffffff 1 806] ------- [REQUEST 1/1 0/25]
r 1.009824167 _25_ MAC  --- 0 ARP 28 [0 ffffffff 1 806] ------- [REQUEST 1/1 0/25]
s 1.009913698 _19_ MAC  --- 0 AODV 106 [0 ffffffff 13 800] ------- [19:255 -1:255 28 0] [0x2 3 1 [29 0] [21 4]] (REQUEST)
r 1.010761896 _26_ MAC  --- 0 AODV 48 [0 ffffffff 13 800] ------- [19:255 -1:255 28 0] [0x2 3 1 [29 0] [21 4]] (REQUEST)
r 1.010761941 _1_ MAC  --- 0 AODV 48 [0 ffffffff 13 800] ------- [19:255 -1:255 28 0] [0x2 3 1 [29 0] [21 4]] (REQUEST)
r 1.010762200 _20_ MAC  --- 0 AODV 48 [0 ffffffff 13 800] ------- [19:255 -1:255 28 0] [0x2 3 1 [29 0] [21 4]] (REQUEST)
r 1.010762329 _4_ MAC  --- 0 AODV 48 [0 ffffffff 13 800] ------- [19:255 -1:255 28 0] [0x2 3 1 [29 0] [21 4]] (REQUEST)
r 1.010762392 _0_ MAC  --- 0 AODV 48 [0 ffffffff 13 800] ------- [19:255 -1:255 28 0] [0x2 3 1 [29 0] [21 4]] (REQUEST)
r 1.010762413 _25_ MAC  --- 0 AODV 48 [0 ffffffff 13 800] ------- [19:255 -1:255 28 0] [0x2 3 1 [29 0] [21 4]] (REQUEST)
r 1.010762443 _15_ MAC  --- 0 AODV 48 [0 ffffffff 13 800] ------- [19:255 -1:255 28 0] [0x2 3 1 [29 0] [21 4]] (REQUEST)
r 1.010762464 _3_ MAC  --- 0 AODV 48 [0 ffffffff 13 800] ------- [19:255 -1:255 28 0] [0x2 3 1 [29 0] [21 4]] (REQUEST)
r 1.010786896 _26_ RTR  --- 0 AODV 48 [0 ffffffff 13 800] ------- [19:255 -1:255 28 0] [0x2 3 1 [29 0] [21 4]] (REQUEST)
r 1.010786941 _1_ RTR  --- 0 AODV 48 [0 ffffffff 13 800] ------- [19:255 -1:255 28 0] [0x2 3 1 [29 0] [21 4]] (REQUEST)
r 1.010787200 _20_ RTR  --- 0 AODV 48 [0 ffffffff 13 800] ------- [19:255 -1:255 28 0] [0x2 3 1 [29 0] [21 4]] (REQUEST)
r 1.010787329 _4_ RTR  --- 0 AODV 48 [0 ffffffff 13 800] ------- [19:255 -1:255 28 0] [0x2 3 1 [29 0] [21 4]] (REQUEST)
r 1.010787392 _0_ RTR  --- 0 AODV 48 [0 ffffffff 13 800] ------- [19:255 -1:255 28 0] [0x2 3 1 [29 0] [21 4]] (REQUEST)
r 1.010787413 _25_ RTR  --- 0 AODV 48 [0 ffffffff 13 800] ------- [19:255 -1:255 28 0] [0x2 3 1 [29 0] [21 4]] (REQUEST)
r 1.010787443 _15_ RTR  --- 0 AODV 48 [0 ffffffff 13 800] ------- [19:255 -1:255 28 0] [0x2 3 1 [29 0] [21 4]] (REQUEST)
r 1.010787464 _3_ RTR  --- 0 AODV 48 [0 ffffffff 13 800] ------- [19:255 -1:255 28 0] [0x2 3 1 [29 0] [21 4]] (REQUEST)
s 1.010832200 _20_ MAC  --- 0 AODV 106 [0 ffffffff 14 800] ------- [20:255 -1:255 29 0] [0x2 2 1 [29 0] [21 4]] (REQUEST)
s 1.011102138 _24_ RTR  --- 0 AODV 48 [0 ffffffff 16 800] ------- [24:255 -1:255 28 0] [0x2 3 1 [29 0] [21 4]] (REQUEST)
r 1.011680444 _25_ MAC  --- 0 AODV 48 [0 ffffffff 14 800] ------- [20:255 -1:255 29 0] [0x2 2 1 [29 0] [21 4]] (REQUEST)
r 1.011680664 _26_ MAC  --- 0 AODV 48 [0 ffffffff 14 800] ------- [20:255 -1:255 29 0] [0x2 2 1 [29 0] [21 4]] (REQUEST)
r 1.011680665 _15_ MAC  --- 0 AODV 48 [0 ffffffff 14 800] ------- [20:255 -1:255 29 0] [0x2 2 1 [29 0] [21 4]] (REQUEST)
r 1.011680670 _1_ MAC  --- 0 AODV 48 [0 ffffffff 14 800] ------- [20:255 -1:255 29 0] [0x2 2 1 [29 0] [21 4]] (REQUEST)
r 1.011680703 _19_ MAC  --- 0 AODV 48 [0 ffffffff 14 800] ------- [20:255 -1:255 29 0] [0x2 2 1 [29 0] [21 4]] (REQUEST)
r 1.011680716 _21_ MAC  --- 0 AODV 48 [0 ffffffff 14 800] ------- [20:255 -1:255 29 0] [0x2 2 1 [29 0] [21 4]] (REQUEST)
r 1.011680879 _22_ MAC  --- 0 AODV 48 [0 ffffffff 14 800] ------- [20:255 -1:255 29 0] [0x2 2 1 [29 0] [21 4]] (REQUEST)
r 1.011680977 _28_ MAC  --- 0 AODV 48 [0 ffffffff 14 800] ------- [20:255 -1:255 29 0] [0x2 2 1 [29 0] [21 4]] (REQUEST)
r 1.011681023 _4_ MAC  --- 0 AODV 48 [0 ffffffff 14 800] ------- [20:255 -1:255 29 0] [0x2 2 1 [29 0] [21 4]] (REQUEST)
r 1.011705444 _25_ RTR  --- 0 AODV 48 [0 ffffffff 14 800] ------- [20:255 -1:255 29 0] [0x2 2 1 [29 0] [21 4]] (REQUEST)
r 1.011705664 _26_ RTR  --- 0 AODV 48 [0 ffffffff 14 800] ------- [20:255 -1:255 29 0] [0x2 2 1 [29 0] [21 4]] (REQUEST)
r 1.011705665 _15_ RTR  --- 0 AODV 48 [0 ffffffff 14 800] ------- [20:255 -1:255 29 0] [0x2 2 1 [29 0] [21 4]] (REQUEST)
r 1.011705670 _1_ RTR  --- 0 AODV 48 [0 ffffffff 14 800] ------- [20:255 -1:255 29 0] [0x2 2 1 [29 0] [21 4]] (REQUEST)
r 1.011705703 _19_ RTR  --- 0 AODV 48 [0 ffffffff 14 800] ------- [20:255 -1:255 29 0] [0x2 2 1 [29 0] [21 4]] (REQUEST)
r 1.011705716 _21_ RTR  --- 0 AODV 48 [0 ffffffff 14 800] ------- [20:255 -1:255 29 0] [0x2 2 1 [29 0] [21 4]] (REQUEST)
r 1.011705879 _22_ RTR  --- 0 AODV 48 [0 ffffffff 14 800] ------- [20:255 -1:255 29 0] [0x2 2 1 [29 0] [21 4]] (REQUEST)
r 1.011705977 _28_ RTR  --- 0 AODV 48 [0 ffffffff 14 800] ------- [20:255 -1:255 29 0] [0x2 2 1 [29 0] [21 4]] (REQUEST)
r 1.011706023 _4_ RTR  --- 0 AODV 48 [0 ffffffff 14 800] ------- [20:255 -1:255 29 0] [0x2 2 1 [29 0] [21 4]] (REQUEST)
s 1.011750444 _25_ MAC  --- 0 ARP 86 [0 ffffffff 19 806] ------- [REQUEST 25/25 0/21]
r 1.012438688 _20_ MAC  --- 0 ARP 28 [0 ffffffff 19 806] ------- [REQUEST 25/25 0/21]
r 1.012438894 _21_ MAC  --- 0 ARP 28 [0 ffffffff 19 806] ------- [REQUEST 25/25 0/21]
r 1.012438997 _28_ MAC  --- 0 ARP 28 [0 ffffffff 19 806] ------- [REQUEST 25/25 0/21]
r 1.012439054 _15_ MAC  --- 0 ARP 28 [0 ffffffff 19 806] ------- [REQUEST 25/25 0/21]
r 1.012439110 _22_ MAC  --- 0 ARP 28 [0 ffffffff 19 806] ------- [REQUEST 25/25 0/21]
r 1.012439148 _26_ MAC  --- 0 ARP 28 [0 ffffffff 19 806] ------- [REQUEST 25/25 0/21]
r 1.012439156 _1_ MAC  --- 0 ARP 28 [0 ffffffff 19 806] ------- [REQUEST 25/25 0/21]
r 1.012439159 _19_ MAC  --- 0 ARP 28 [0 ffffffff 19 806] ------- [REQUEST 25/25 0/21]
r 1.012439169 _29_ MAC  --- 0 ARP 28 [0 ffffffff 19 806] ------- [REQUEST 25/25 0/21]
s 1.012509054 _15_ MAC  --- 0 AODV 106 [0 ffffffff f 800] ------- [15:255 -1:255 29 0] [0x2 2 1 [29 0] [21 4]] (REQUEST)
s 1.012594924 _26_ RTR  --- 0 AODV 48 [0 ffffffff 19 800] ------- [26:255 -1:255 28 0] [0x2 3 1 [29 0] [21 4]] (REQUEST)
r 1.013357481 _22_ MAC  --- 0 AODV 48 [0 ffffffff f 800] ------- [15:255 -1:255 29 0] [0x2 2 1 [29 0] [21 4]] (REQUEST)
r 1.013357504 _21_ MAC  --- 0 AODV 48 [0 ffffffff f 800] ------- [15:255 -1:255 29 0] [0x2 2 1 [29 0] [21 4]] (REQUEST)
r 1.013357518 _20_ MAC  --- 0 AODV 48 [0 ffffffff f 800] ------- [15:255 -1:255 29 0] [0x2 2 1 [29 0] [21 4]] (REQUEST)
r 1.013357603 _1_ MAC  --- 0 AODV 48 [0 ffffffff f 800] ------- [15:255 -1:255 29 0] [0x2 2 1 [29 0] [21 4]] (REQUEST)
r 1.013357631 _27_ MAC  --- 0 AODV 48 [0 ffffffff f 800] ------- [15:255 -1:255 29 0] [0x2 2 1 [29 0] [21 4]] (REQUEST)
r 1.013357634 _26_ MAC  --- 0 AODV 48 [0 ffffffff f 800] ------- [15:255 -1:255 29 0] [0x2 2 1 [29 0] [21 4]] (REQUEST)
r 1.013357663 _25_ MAC  --- 0 AODV 48 [0 ffffffff f 800] ------- [15:255 -1:255 29 0] [0x2 2 1 [29 0] [21 4]] (REQUEST)
r 1.013357671 _9_ MAC  --- 0 AODV 48 [0 ffffffff f 800] ------- [15:255 -1:255 29 0] [0x2 2 1 [29 0] [21 4]] (REQUEST)
r 1.013357692 _4_ MAC  --- 0 AODV 48 [0 ffffffff f 800] ------- [15:255 -1:255 29 0] [0x2 2 1 [29 0] [21 4]] (REQUEST)
r 1.013357737 _23_ MAC  --- 0 AODV 48 [0 ffffffff f 800] ------- [15:255 -1:255 29 0] [0x2 2 1 [29 0] [21 4]] (REQUEST)
r 1.013357799 _19_ MAC  --- 0 AODV 48 [0 ffffffff f 800] ------- [15:255 -1:255 29 0] [0x2 2 1 [29 0] [21 4]] (REQUEST)
r 1.013357869 _18_ MAC  --- 0 AODV 48 [0 ffffffff f 800] ------- [15:255 -1:255 29 0] [0x2 2 1 [29 0] [21 4]] (REQUEST)
r 1.013357885 _24_ MAC  --- 0 AODV 48 [0 ffffffff f 800] ------- [15:255 -1:255 29 0] [0x2 2 1 [29 0] [21 4]] (REQUEST)
r 1.013382481 _22_ RTR  --- 0 AODV 48 [0 ffffffff f 800] ------- [15:255 -1:255 29 0] [0x2 2 1 [29 0] [21 4]] (REQUEST)
r 1.013382504 _21_ RTR  --- 0 AODV 48 [0 ffffffff f 800] ------- [15:255 -1:255 29 0] [0x2 2 1 [29 0] [21 4]] (REQUEST)
r 1.013382518 _20_ RTR  --- 0 AODV 48 [0 ffffffff f 800] ------- [15:255 -1:255 29 0] [0x2 2 1 [29 0] [21 4]] (REQUEST)
r 1.013382603 _1_ RTR  --- 0 AODV 48 [0 ffffffff f 800] ------- [15:255 -1:255 29 0] [0x2 2 1 [29 0] [21 4]] (REQUEST)
r 1.013382631 _27_ RTR  --- 0 AODV 48 [0 ffffffff f 800] ------- [15:255 -1:255 29 0] [0x2 2 1 [29 0] [21 4]] (REQUEST)
r 1.013382634 _26_ RTR  --- 0 AODV 48 [0 ffffffff f 800] ------- [15:255 -1:255 29 0] [0x2 2 1 [29 0] [21 4]] (REQUEST)
r 1.013382663 _25_ RTR  --- 0 AODV 48 [0 ffffffff f 800] ------- [15:255 -1:255 29 0] [0x2 2 1 [29 0] [21 4]] (REQUEST)
r 1.013382671 _9_ RTR  --- 0 AODV 48 [0 ffffffff f 800] ------- [15:255 -1:255 29 0] [0x2 2 1 [29 0] [21 4]] (REQUEST)
r 1.013382692 _4_ RTR  --- 0 AODV 48 [0 ffffffff f 800] ------- [15:255 -1:255 29 0] [0x2 2 1 [29 0] [21 4]] (REQUEST)
r 1.013382737 _23_ RTR  --- 0 AODV 48 [0 ffffffff f 800] ------- [15:255 -1:255 29 0] [0x2 2 1 [29 0] [21 4]] (REQUEST)
r 1.013382799 _19_ RTR  --- 0 AODV 48 [0 ffffffff f 800] ------- [15:255 -1:255 29 0] [0x2 2 1 [29 0] [21 4]] (REQUEST)
r 1.013382869 _18_ RTR  --- 0 AODV 48 [0 ffffffff f 800] ------- [15:255 -1:255 29 0] [0x2 2 1 [29 0] [21 4]] (REQUEST)
r 1.013382885 _24_ RTR  --- 0 AODV 48 [0 ffffffff f 800] ------- [15:255 -1:255 29 0] [0x2 2 1 [29 0] [21 4]] (REQUEST)
s 1.013487885 _24_ MAC  --- 0 AODV 106 [0 ffffffff 18 800] ------- [24:255 -1:255 28 0] [0x2 3 1 [29 0] [21 4]] (REQUEST)
r 1.014336261 _23_ MAC  --- 0 AODV 48 [0 ffffffff 18 800] ------- [24:255 -1:255 28 0] [0x2 3 1 [29 0] [21 4]] (REQUEST)
r 1.014336468 _27_ MAC  --- 0 AODV 48 [0 ffffffff 18 800] ------- [24:255 -1:255 28 0] [0x2 3 1 [29 0] [21 4]] (REQUEST)
r 1.014336502 _9_ MAC  --- 0 AODV 48 [0 ffffffff 18 800] ------- [24:255 -1:255 28 0] [0x2 3 1 [29 0] [21 4]] (REQUEST)
r 1.014336510 _22_ MAC  --- 0 AODV 48 [0 ffffffff 18 800] ------- [24:255 -1:255 28 0] [0x2 3 1 [29 0] [21 4]] (REQUEST)
r 1.014336539 _12_ MAC  --- 0 AODV 48 [0 ffffffff 18 800] ------- [24:255 -1:255 28 0] [0x2 3 1 [29 0] [21 4]] (REQUEST)
r 1.014336716 _15_ MAC  --- 0 AODV 48 [0 ffffffff 18 800] ------- [24:255 -1:255 28 0] [0x2 3 1 [29 0] [21 4]] (REQUEST)
r 1.014361261 _23_ RTR  --- 0 AODV 48 [0 ffffffff 18 800] ------- [24:255 -1:255 28 0] [0x2 3 1 [29 0] [21 4]] (REQUEST)
r 1.014361468 _27_ RTR  --- 0 AODV 48 [0 ffffffff 18 800] ------- [24:255 -1:255 28 0] [0x2 3 1 [29 0] [21 4]] (REQUEST)
r 1.014361502 _9_ RTR  --- 0 AODV 48 [0 ffffffff 18 800] ------- [24:255 -1:255 28 0] [0x2 3 1 [29 0] [21 4]] (REQUEST)
r 1.014361510 _22_ RTR  --- 0 AODV 48 [0 ffffffff 18 800] ------- [24:255 -1:255 28 0] [0x2 3 1 [29 0] [21 4]] (REQUEST)
r 1.014361539 _12_ RTR  --- 0 AODV 48 [0 ffffffff 18 800] ------- [24:255 -1:255 28 0] [0x2 3 1 [29 0] [21 4]] (REQUEST)
r 1.014361716 _15_ RTR  --- 0 AODV 48 [0 ffffffff 18 800] ------- [24:255 -1:255 28 0] [0x2 3 1 [29 0] [21 4]] (REQUEST)
s 1.014466502 _9_ MAC  --- 0 AODV 106 [0 ffffffff 9 800] ------- [9:255 -1:255 28 0] [0x2 3 1 [29 0] [21 4]] (REQUEST)
s 1.014945565 _12_ RTR  --- 0 AODV 48 [0 ffffffff 18 800] ------- [12:255 -1:255 27 0] [0x2 4 1 [29 0] [21 4]] (REQUEST)
r 1.015314555 _27_ MAC  --- 0 AODV 48 [0 ffffffff 9 800] ------- [9:255 -1:255 28 0] [0x2 3 1 [29 0] [21 4]] (REQUEST)
r 1.015314800 _12_ MAC  --- 0 AODV 48 [0 ffffffff 9 800] ------- [9:255 -1:255 28 0] [0x2 3 1 [29 0] [21 4]] (REQUEST)
r 1.015314966 _18_ MAC  --- 0 AODV 48 [0 ffffffff 9 800] ------- [9:255 -1:255 28 0] [0x2 3 1 [29 0] [21 4]] (REQUEST)
r 1.015315120 _24_ MAC  --- 0 AODV 48 [0 ffffffff 9 800] ------- [9:255 -1:255 28 0] [0x2 3 1 [29 0] [21 4]] (REQUEST)
r 1.015315120 _15_ MAC  --- 0 AODV 48 [0 ffffffff 9 800] ------- [9:255 -1:255 28 0] [0x2 3 1 [29 0] [21 4]] (REQUEST)
r 1.015315137 _6_ MAC  --- 0 AODV 48 [0 ffffffff 9 800] ------- [9:255 -1:255 28 0] [0x2 3 1 [29 0] [21 4]] (REQUEST)
r 1.015315201 _7_ MAC  --- 0 AODV 48 [0 ffffffff 9 800] ------- [9:255 -1:255 28 0] [0x2 3 1 [29 0] [21 4]] (REQUEST)
r 1.015315232 _4_ MAC  --- 0 AODV 48 [0 ffffffff 9 800] ------- [9:255 -1:255 28 0] [0x2 3 1 [29 0] [21 4]] (REQUEST)
r 1.015315256 _13_ MAC  --- 0 AODV 48 [0 ffffffff 9 800] ------- [9:255 -1:255 28 0] [0x2 3 1 [29 0] [21 4]] (REQUEST)
r 1.015315282 _22_ MAC  --- 0 AODV 48 [0 ffffffff 9 800] ------- [9:255 -1:255 28 0] [0x2 3 1 [29 0] [21 4]] (REQUEST)
r 1.015315289 _23_ MAC  --- 0 AODV 48 [0 ffffffff 9 800] ------- [9:255 -1:255 28 0] [0x2 3 1 [29 0] [21 4]] (REQUEST)
r 1.015315296 _10_ MAC  --- 0 AODV 48 [0 ffffffff 9 800] ------- [9:255 -1:255 28 0] [0x2 3 1 [29 0] [21 4]] (REQUEST)
r 1.015339555 _27_ RTR  --- 0 AODV 48 [0 ffffffff 9 800] ------- [9:255 -1:255 28 0] [0x2 3 1 [29 0] [21 4]] (REQUEST)
r 1.015339800 _12_ RTR  --- 0 AODV 48 [0 ffffffff 9 800] ------- [9:255 -1:255 28 0] [0x2 3 1 [29 0] [21 4]] (REQUEST)
r 1.015339966 _18_ RTR  --- 0 AODV 48 [0 ffffffff 9 800] ------- [9:255 -1:255 28 0] [0x2 3 1 [29 0] [21 4]] (REQUEST)
r 1.015340120 _24_ RTR  --- 0 AODV 48 [0 ffffffff 9 800] ------- [9:255 -1:255 28 0] [0x2 3 1 [29 0] [21 4]] (REQUEST)
r 1.015340120 _15_ RTR  --- 0 AODV 48 [0 ffffffff 9 800] ------- [9:255 -1:255 28 0] [0x2 3 1 [29 0] [21 4]] (REQUEST)
r 1.015340137 _6_ RTR  --- 0 AODV 48 [0 ffffffff 9 800] ------- [9:255 -1:255 28 0] [0x2 3 1 [29 0] [21 4]] (REQUEST)
r 1.015340201 _7_ RTR  --- 0 AODV 48 [0 ffffffff 9 800] ------- [9:255 -1:255 28 0] [0x2 3 1 [29 0] [21 4]] (REQUEST)
s 1.015340201 _7_ RTR  --- 0 AODV 44 [0 0 0 0] ------- [7:255 21:255 30 9] [0x4 1 [29 4] 10.000000] (REPLY)
r 1.015340232 _4_ RTR  --- 0 AODV 48 [0 ffffffff 9 800] ------- [9:255 -1:255 28 0] [0x2 3 1 [29 0] [21 4]] (REQUEST)
r 1.015340256 _13_ RTR  --- 0 AODV 48 [0 ffffffff 9 800] ------- [9:255 -1:255 28 0] [0x2 3 1 [29 0] [21 4]] (REQUEST)
s 1.015340256 _13_ RTR  --- 0 AODV 44 [0 0 0 0] ------- [13:255 21:255 30 9] [0x4 1 [29 4] 10.000000] (REPLY)
r 1.015340282 _22_ RTR  --- 0 AODV 48 [0 ffffffff 9 800] ------- [9:255 -1:255 28 0] [0x2 3 1 [29 0] [21 4]] (REQUEST)
r 1.015340289 _23_ RTR  --- 0 AODV 48 [0 ffffffff 9 800] ------- [9:255 -1:255 28 0] [0x2 3 1 [29 0] [21 4]] (REQUEST)
r 1.015340296 _10_ RTR  --- 0 AODV 48 [0 ffffffff 9 800] ------- [9:255 -1:255 28 0] [0x2 3 1 [29 0] [21 4]] (REQUEST)
s 1.015484800 _12_ MAC  --- 0 AODV 106 [0 ffffffff c 800] ------- [12:255 -1:255 27 0] [0x2 4 1 [29 0] [21 4]] (REQUEST)
r 1.016333098 _9_ MAC  --- 0 AODV 48 [0 ffffffff c 800] ------- [12:255 -1:255 27 0] [0x2 4 1 [29 0] [21 4]] (REQUEST)
r 1.016333135 _27_ MAC  --- 0 AODV 48 [0 ffffffff c 800] ------- [12:255 -1:255 27 0] [0x2 4 1 [29 0] [21 4]] (REQUEST)
r 1.016333270 _6_ MAC  --- 0 AODV 48 [0 ffffffff c 800] ------- [12:255 -1:255 27 0] [0x2 4 1 [29 0] [21 4]] (REQUEST)
r 1.016333373 _18_ MAC  --- 0 AODV 48 [0 ffffffff c 800] ------- [12:255 -1:255 27 0] [0x2 4 1 [29 0] [21 4]] (REQUEST)
r 1.016333393 _13_ MAC  --- 0 AODV 48 [0 ffffffff c 800] ------- [12:255 -1:255 27 0] [0x2 4 1 [29 0] [21 4]] (REQUEST)
r 1.016333454 _24_ MAC  --- 0 AODV 48 [0 ffffffff c 800] ------- [12:255 -1:255 27 0] [0x2 4 1 [29 0] [21 4]] (REQUEST)
r 1.016333542 _10_ MAC  --- 0 AODV 48 [0 ffffffff c 800] ------- [12:255 -1:255 27 0] [0x2 4 1 [29 0] [21 4]] (REQUEST)
r 1.016333559 _7_ MAC  --- 0 AODV 48 [0 ffffffff c 800] ------- [12:255 -1:255 27 0] [0x2 4 1 [29 0] [21 4]] (REQUEST)
r 1.016358098 _9_ RTR  --- 0 AODV 48 [0 ffffffff c 800] ------- [12:255 -1:255 27 0] [0x2 4 1 [29 0] [21 4]] (REQUEST)
r 1.016358135 _27_ RTR  --- 0 AODV 48 [0 ffffffff c 800] ------- [12:255 -1:255 27 0] [0x2 4 1 [29 0] [21 4]] (REQUEST)
r 1.016358270 _6_ RTR  --- 0 AODV 48 [0 ffffffff c 800] ------- [12:255 -1:255 27 0] [0x2 4 1 [29 0] [21 4]] (REQUEST)
r 1.016358373 _18_ RTR  --- 0 AODV 48 [0 ffffffff c 800] ------- [12:255 -1:255 27 0] [0x2 4 1 [29 0] [21 4]] (REQUEST)
r 1.016358393 _13_ RTR  --- 0 AODV 48 [0 ffffffff c 800] ------- [12:255 -1:255 27 0] [0x2 4 1 [29 0] [21 4]] (REQUEST)
r 1.016358454 _24_ RTR  --- 0 AODV 48 [0 ffffffff c 800] ------- [12:255 -1:255 27 0] [0x2 4 1 [29 0] [21 4]] (REQUEST)
r 1.016358542 _10_ RTR  --- 0 AODV 48 [0 ffffffff c 800] ------- [12:255 -1:255 27 0] [0x2 4 1 [29 0] [21 4]] (REQUEST)
r 1.016358559 _7_ RTR  --- 0 AODV 48 [0 ffffffff c 800] ------- [12:255 -1:255 27 0] [0x2 4 1 [29 0] [21 4]] (REQUEST)
s 1.016423135 _27_ MAC  --- 0 AODV 106 [0 ffffffff 1b 800] ------- [27:255 -1:255 28 0] [0x2 3 1 [29 0] [21 4]] (REQUEST)
s 1.016571331 _10_ RTR  --- 0 AODV 48 [0 ffffffff 9 800] ------- [10:255 -1:255 27 0] [0x2 4 1 [29 0] [21 4]] (REQUEST)
r 1.017271187 _9_ MAC  --- 0 AODV 48 [0 ffffffff 1b 800] ------- [27:255 -1:255 28 0] [0x2 3 1 [29 0] [21 4]] (REQUEST)
r 1.017271469 _12_ MAC  --- 0 AODV 48 [0 ffffffff 1b 800] ------- [27:255 -1:255 28 0] [0x2 3 1 [29 0] [21 4]] (REQUEST)
r 1.017271636 _18_ MAC  --- 0 AODV 48 [0 ffffffff 1b 800] ------- [27:255 -1:255 28 0] [0x2 3 1 [29 0] [21 4]] (REQUEST)
r 1.017271712 _15_ MAC  --- 0 AODV 48 [0 ffffffff 1b 800] ------- [27:255 -1:255 28 0] [0x2 3 1 [29 0] [21 4]] (REQUEST)
r 1.017271718 _24_ MAC  --- 0 AODV 48 [0 ffffffff 1b 800] ------- [27:255 -1:255 28 0] [0x2 3 1 [29 0] [21 4]] (REQUEST)
r 1.017271821 _6_ MAC  --- 0 AODV 48 [0 ffffffff 1b 800] ------- [27:255 -1:255 28 0] [0x2 3 1 [29 0] [21 4]] (REQUEST)
r 1.017271862 _22_ MAC  --- 0 AODV 48 [0 ffffffff 1b 800] ------- [27:255 -1:255 28 0] [0x2 3 1 [29 0] [21 4]] (REQUEST)
r 1.017271869 _4_ MAC  --- 0 AODV 48 [0 ffffffff 1b 800] ------- [27:255 -1:255 28 0] [0x2 3 1 [29 0] [21 4]] (REQUEST)
r 1.017271872 _23_ MAC  --- 0 AODV 48 [0 ffffffff 1b 800] ------- [27:255 -1:255 28 0] [0x2 3 1 [29 0] [21 4]] (REQUEST)
r 1.017271874 _7_ MAC  --- 0 AODV 48 [0 ffffffff 1b 800] ------- [27:255 -1:255 28 0] [0x2 3 1 [29 0] [21 4]] (REQUEST)
r 1.017271941 _13_ MAC  --- 0 AODV 48 [0 ffffffff 1b 800] ------- [27:255 -1:255 28 0] [0x2 3 1 [29 0] [21 4]] (REQUEST)
r 1.017296187 _9_ RTR  --- 0 AODV 48 [0 ffffffff 1b 800] ------- [27:255 -1:255 28 0] [0x2 3 1 [29 0] [21 4]] (REQUEST)
r 1.017296469 _12_ RTR  --- 0 AODV 48 [0 ffffffff 1b 800] ------- [27:255 -1:255 28 0] [0x2 3 1 [29 0] [21 4]] (REQUEST)
r 1.017296636 _18_ RTR  --- 0 AODV 48 [0 ffffffff 1b 800] ------- [27:255 -1:255 28 0] [0x2 3 1 [29 0] [21 4]] (REQUEST)
r 1.017296712 _15_ RTR  --- 0 AODV 48 [0 ffffffff 1b 800] ------- [27:255 -1:255 28 0] [0x2 3 1 [29 0] [21 4]] (REQUEST)
r 1.017296718 _24_ RTR  --- 0 AODV 48 [0 ffffffff 1b 800] ------- [27:255 -1:255 28 0] [0x2 3 1 [29 0] [21 4]] (REQUEST)
r 1.017296821 _6_ RTR  --- 0 AODV 48 [0 ffffffff 1b 800] ------- [27:255 -1:255 28 0] [0x2 3 1 [29 0] [21 4]] (REQUEST)
r 1.017296862 _22_ RTR  --- 0 AODV 48 [0 ffffffff 1b 800] ------- [27:255 -1:255 28 0] [0x2 3 1 [29 0] [21 4]] (REQUEST)
r 1.017296869 _4_ RTR  --- 0 AODV 48 [0 ffffffff 1b 800] ------- [27:255 -1:255 28 0] [0x2 3 1 [29 0] [21 4]] (REQUEST)
r 1.017296872 _23_ RTR  --- 0 AODV 48 [0 ffffffff 1b 800] ------- [27:255 -1:255 28 0] [0x2 3 1 [29 0] [21 4]] (REQUEST)
r 1.017296874 _7_ RTR  --- 0 AODV 48 [0 ffffffff 1b 800] ------- [27:255 -1:255 28 0] [0x2 3 1 [29 0] [21 4]] (REQUEST)
r 1.017296941 _13_ RTR  --- 0 AODV 48 [0 ffffffff 1b 800] ------- [27:255 -1:255 28 0] [0x2 3 1 [29 0] [21 4]] (REQUEST)
s 1.017381874 _7_ MAC  --- 0 ARP 86 [0 ffffffff 7 806] ------- [REQUEST 7/7 0/9]
s 1.017560819 _4_ RTR  --- 0 AODV 48 [0 ffffffff 13 800] ------- [4:255 -1:255 27 0] [0x2 4 1 [29 0] [21 4]] (REQUEST)
s 1.018046546 _28_ MAC  --- 0 AODV 106 [0 ffffffff 1c 800] ------- [28:255 -1:255 29 0] [0x2 2 1 [29 0] [21 4]] (REQUEST)
r 1.018070116 _18_ MAC  --- 0 ARP 28 [0 ffffffff 7 806] ------- [REQUEST 7/7 0/9]