M 0.00000 0 (663.00, 484.00, 0.00), (0.00, 0.00), 0.00
M 0.00000 21 (263.00, 306.00, 0.00), (100.00, 100.00), 40.00
M 0.00000 20 (350.00, 434.00, 0.00), (150.00, 175.00), 40.00
M 0.00000 8 (761.00, 234.00, 0.00), (335.00, 500.00), 5.00
M 0.00000 11 (825.00, 140.00, 0.00), (565.00, 420.00), 5.00
M 0.00000 17 (908.00, 344.00, 0.00), (765.00, 320.00), 5.00
M 0.00000 25 (250.00, 404.00, 0.00), (343.00, 576.00), 5.00
M 1.00000 2 (791.00, 406.00, 0.00), (615.00, 340.00), 5.00
M 1.00000 3 (668.00, 393.00, 0.00), (680.00, 458.00), 5.00
M 1.00000 29 (36.00, 431.00, 0.00), (185.00, 120.00), 5.00
M 1.00000 12 (509.00, 34.00, 0.00), (700.00, 20.00), 5.00
M 1.00000 23 (240.00, 115.00, 0.00), (115.00, 85.00), 5.00
M 1.00000 14 (822.00, 51.00, 0.00), (195.00, 185.00), 5.00
M 1.00000 15 (373.00, 271.00, 0.00), (387.00, 590.00), 5.00
M 1.00000 18 (600.00, 180.00, 0.00), (109.00, 20.00), 5.00
M 1.00000 19 (455.00, 479.00, 0.00), (175.00, 185.00), 5.00
M 1.00000 26 (463.00, 420.00, 0.00), (764.00, 424.00), 5.00
M 1.00000 27 (461.00, 122.00, 0.00), (676.00, 464.00), 5.00
s 1.000000000 _21_ AGT  --- 0 cbr 1000 [0 0 0 0] ------- [21:0 29:0 32 0] [0] 0 0
r 1.000000000 _21_ RTR  --- 0 cbr 1000 [0 0 0 0] ------- [21:0 29:0 32 0] [0] 0 0
s 1.000000000 _21_ RTR  --- 0 AODV 48 [0 0 0 0] ------- [21:255 -1:255 30 0] [0x2 1 1 [29 0] [21 4]] (REQUEST)
s 1.000535000 _21_ MAC  --- 0 AODV 106 [0 ffffffff 15 800] ------- [21:255 -1:255 30 0] [0x2 1 1 [29 0] [21 4]] (REQUEST)
r 1.001383232 _22_ MAC  --- 0 AODV 48 [0 ffffffff 15 800] ------- [21:255 -1:255 30 0] [0x2 1 1 [29 0] [21 4]] (REQUEST)
r 1.001383448 _25_ MAC  --- 0 AODV 48 [0 ffffffff 15 800] ------- [21:255 -1:255 30 0] [0x2 1 1 [29 0] [21 4]] (REQUEST)
r 1.001383450 _15_ MAC  --- 0 AODV 48 [0 ffffffff 15 800] ------- [21:255 -1:255 30 0] [0x2 1 1 [29 0] [21 4]] (REQUEST)
r 1.001383514 _28_ MAC  --- 0 AODV 48 [0 ffffffff 15 800] ------- [21:255 -1:255 30 0] [0x2 1 1 [29 0] [21 4]] (REQUEST)
r 1.001383516 _20_ MAC  --- 0 AODV 48 [0 ffffffff 15 800] ------- [21:255 -1:255 30 0] [0x2 1 1 [29 0] [21 4]] (REQUEST)
r 1.001383532 _23_ MAC  --- 0 AODV 48 [0 ffffffff 15 800] ------- [21:255 -1:255 30 0] [0x2 1 1 [29 0] [21 4]] (REQUEST)
r 1.001408232 _22_ RTR  --- 0 AODV 48 [0 ffffffff 15 800] ------- [21:255 -1:255 30 0] [0x2 1 1 [29 0] [21 4]] (REQUEST)
r 1.001408448 _25_ RTR  --- 0 AODV 48 [0 ffffffff 15 800] ------- [21:255 -1:255 30 0] [0x2 1 1 [29 0] [21 4]] (REQUEST)
r 1.001408450 _15_ RTR  --- 0 AODV 48 [0 ffffffff 15 800] ------- [21:255 -1:255 30 0] [0x2 1 1 [29 0] [21 4]] (REQUEST)
r 1.001408514 _28_ RTR  --- 0 AODV 48 [0 ffffffff 15 800] ------- [21:255 -1:255 30 0] [0x2 1 1 [29 0] [21 4]] (REQUEST)
r 1.001408516 _20_ RTR  --- 0 AODV 48 [0 ffffffff 15 800] ------- [21:255 -1:255 30 0] [0x2 1 1 [29 0] [21 4]] (REQUEST)
r 1.001408532 _23_ RTR  --- 0 AODV 48 [0 ffffffff 15 800] ------- [21:255 -1:255 30 0] [0x2 1 1 [29 0] [21 4]] (REQUEST)
s 1.001550278 _22_ RTR  --- 0 AODV 48 [0 ffffffff 15 800] ------- [22:255 -1:255 29 0] [0x2 2 1 [29 0] [21 4]] (REQUEST)
s 1.001865278 _22_ MAC  --- 0 AODV 106 [0 ffffffff 16 800] ------- [22:255 -1:255 29 0] [0x2 2 1 [29 0] [21 4]] (REQUEST)
s 1.002289675 _25_ RTR  --- 0 AODV 48 [0 ffffffff 15 800] ------- [25:255 -1:255 29 0] [0x2 2 1 [29 0] [21 4]] (REQUEST)
r 1.002713510 _21_ MAC  --- 0 AODV 48 [0 ffffffff 16 800] ------- [22:255 -1:255 29 0] [0x2 2 1 [29 0] [21 4]] (REQUEST)
r 1.002713599 _23_ MAC  --- 0 AODV 48 [0 ffffffff 16 800] ------- [22:255 -1:255 29 0] [0x2 2 1 [29 0] [21 4]] (REQUEST)
r 1.002713705 _15_ MAC  --- 0 AODV 48 [0 ffffffff 16 800] ------- [22:255 -1:255 29 0] [0x2 2 1 [29 0] [21 4]] (REQUEST)
r 1.002713903 _24_ MAC  --- 0 AODV 48 [0 ffffffff 16 800] ------- [22:255 -1:255 29 0] [0x2 2 1 [29 0] [21 4]] (REQUEST)
r 1.002713943 _25_ MAC  --- 0 AODV 48 [0 ffffffff 16 800] ------- [22:255 -1:255 29 0] [0x2 2 1 [29 0] [21 4]] (REQUEST)
r 1.002713957 _20_ MAC  --- 0 AODV 48 [0 ffffffff 16 800] ------- [22:255 -1:255 29 0] [0x2 2 1 [29 0] [21 4]] (REQUEST)
r 1.002713976 _28_ MAC  --- 0 AODV 48 [0 ffffffff 16 800] ------- [22:255 -1:255 29 0] [0x2 2 1 [29 0] [21 4]] (REQUEST)
r 1.002714005 _27_ MAC  --- 0 AODV 48 [0 ffffffff 16 800] ------- [22:255 -1:255 29 0] [0x2 2 1 [29 0] [21 4]] (REQUEST)
r 1.002714058 _9_ MAC  --- 0 AODV 48 [0 ffffffff 16 800] ------- [22:255 -1:255 29 0] [0x2 2 1 [29 0] [21 4]] (REQUEST)
r 1.002738510 _21_ RTR  --- 0 AODV 48 [0 ffffffff 16 800] ------- [22:255 -1:255 29 0] [0x2 2 1 [29 0] [21 4]] (REQUEST)
r 1.002738599 _23_ RTR  --- 0 AODV 48 [0 ffffffff 16 800] ------- [22:255 -1:255 29 0] [0x2 2 1 [29 0] [21 4]] (REQUEST)
r 1.002738705 _15_ RTR  --- 0 AODV 48 [0 ffffffff 16 800] ------- [22:255 -1:255 29 0] [0x2 2 1 [29 0] [21 4]] (REQUEST)
r 1.002738903 _24_ RTR  --- 0 AODV 48 [0 ffffffff 16 800] ------- [22:255 -1:255 29 0] [0x2 2 1 [29 0] [21 4]] (REQUEST)
r 1.002738943 _25_ RTR  --- 0 AODV 48 [0 ffffffff 16 800] ------- [22:255 -1:255 29 0] [0x2 2 1 [29 0] [21 4]] (REQUEST)
r 1.002738957 _20_ RTR  --- 0 AODV 48 [0 ffffffff 16 800] ------- [22:255 -1:255 29 0] [0x2 2 1 [29 0] [21 4]] (REQUEST)
r 1.002738976 _28_ RTR  --- 0 AODV 48 [0 ffffffff 16 800] ------- [22:255 -1:255 29 0] [0x2 2 1 [29 0] [21 4]] (REQUEST)
r 1.002739005 _27_ RTR  --- 0 AODV 48 [0 ffffffff 16 800] ------- [22:255 -1:255 29 0] [0x2 2 1 [29 0] [21 4]] (REQUEST)
r 1.002739058 _9_ RTR  --- 0 AODV 48 [0 ffffffff 16 800] ------- [22:255 -1:255 29 0] [0x2 2 1 [29 0] [21 4]] (REQUEST)
s 1.003123943 _25_ MAC  --- 0 AODV 106 [0 ffffffff 19 800] ------- [25:255 -1:255 29 0] [0x2 2 1 [29 0] [21 4]] (REQUEST)
s 1.003167003 _9_ RTR  --- 0 AODV 48 [0 ffffffff 16 800] ------- [9:255 -1:255 28 0] [0x2 3 1 [29 0] [21 4]] (REQUEST)
r 1.003972188 _20_ MAC  --- 0 AODV 48 [0 ffffffff 19 800] ------- [25:255 -1:255 29 0] [0x2 2 1 [29 0] [21 4]] (REQUEST)
r 1.003972392 _21_ MAC  --- 0 AODV 48 [0 ffffffff 19 800] ------- [25:255 -1:255 29 0] [0x2 2 1 [29 0] [21 4]] (REQUEST)
r 1.003972496 _28_ MAC  --- 0 AODV 48 [0 ffffffff 19 800] ------- [25:255 -1:255 29 0] [0x2 2 1 [29 0] [21 4]] (REQUEST)
r 1.003972553 _15_ MAC  --- 0 AODV 48 [0 ffffffff 19 800] ------- [25:255 -1:255 29 0] [0x2 2 1 [29 0] [21 4]] (REQUEST)
r 1.003972609 _22_ MAC  --- 0 AODV 48 [0 ffffffff 19 800] ------- [25:255 -1:255 29 0] [0x2 2 1 [29 0] [21 4]] (REQUEST)
r 1.003972647 _26_ MAC  --- 0 AODV 48 [0 ffffffff 19 800] ------- [25:255 -1:255 29 0] [0x2 2 1 [29 0] [21 4]] (REQUEST)
r 1.003972656 _1_ MAC  --- 0 AODV 48 [0 ffffffff 19 800] ------- [25:255 -1:255 29 0] [0x2 2 1 [29 0] [21 4]] (REQUEST)
r 1.003972659 _19_ MAC  --- 0 AODV 48 [0 ffffffff 19 800] ------- [25:255 -1:255 29 0] [0x2 2 1 [29 0] [21 4]] (REQUEST)
r 1.003972669 _29_ MAC  --- 0 AODV 48 [0 ffffffff 19 800] ------- [25:255 -1:255 29 0] [0x2 2 1 [29 0] [21 4]] (REQUEST)
r 1.003997188 _20_ RTR  --- 0 AODV 48 [0 ffffffff 19 800] ------- [25:255 -1:255 29 0] [0x2 2 1 [29 0] [21 4]] (REQUEST)
r 1.003997392 _21_ RTR  --- 0 AODV 48 [0 ffffffff 19 800] ------- [25:255 -1:255 29 0] [0x2 2 1 [29 0] [21 4]] (REQUEST)
r 1.003997496 _28_ RTR  --- 0 AODV 48 [0 ffffffff 19 800] ------- [25:255 -1:255 29 0] [0x2 2 1 [29 0] [21 4]] (REQUEST)
r 1.003997553 _15_ RTR  --- 0 AODV 48 [0 ffffffff 19 800] ------- [25:255 -1:255 29 0] [0x2 2 1 [29 0] [21 4]] (REQUEST)
r 1.003997609 _22_ RTR  --- 0 AODV 48 [0 ffffffff 19 800] ------- [25:255 -1:255 29 0] [0x2 2 1 [29 0] [21 4]] (REQUEST)
r 1.003997647 _26_ RTR  --- 0 AODV 48 [0 ffffffff 19 800] ------- [25:255 -1:255 29 0] [0x2 2 1 [29 0] [21 4]] (REQUEST)
r 1.003997656 _1_ RTR  --- 0 AODV 48 [0 ffffffff 19 800] ------- [25:255 -1:255 29 0] [0x2 2 1 [29 0] [21 4]] (REQUEST)
r 1.003997659 _19_ RTR  --- 0 AODV 48 [0 ffffffff 19 800] ------- [25:255 -1:255 29 0] [0x2 2 1 [29 0] [21 4]] (REQUEST)
r 1.003997669 _29_ RTR  --- 0 AODV 48 [0 ffffffff 19 800] ------- [25:255 -1:255 29 0] [0x2 2 1 [29 0] [21 4]] (REQUEST)
s 1.003997669 _29_ RTR  --- 0 AODV 44 [0 0 0 0] ------- [29:255 21:255 30 25] [0x4 1 [29 4] 10.000000] (REPLY)
s 1.004380459 _27_ RTR  --- 0 AODV 48 [0 ffffffff 16 800] ------- [27:255 -1:255 28 0] [0x2 3 1 [29 0] [21 4]] (REQUEST)
s 1.004392669 _29_ MAC  --- 0 ARP 86 [0 ffffffff 1d 806] ------- [REQUEST 29/29 0/25]
s 1.004538134 _20_ RTR  --- 0 AODV 48 [0 ffffffff 15 800] ------- [20:255 -1:255 29 0] [0x2 2 1 [29 0] [21 4]] (REQUEST)
r 1.005081031 _28_ MAC  --- 0 ARP 28 [0 ffffffff 1d 806] ------- [REQUEST 29/29 0/25]
r 1.005081394 _25_ MAC  --- 0 ARP 28 [0 ffffffff 1d 806] ------- [REQUEST 29/29 0/25]
s 1.005156394 _25_ MAC  --- 0 RTS 44 [52e 1d 19 0] 
r 1.005509119 _29_ MAC  --- 0 RTS 44 [52e 1d 19 0] 
s 1.005519119 _29_ MAC  --- 0 CTS 38 [3f4 19 0 0] 
s 1.005745711 _19_ RTR  --- 0 AODV 48 [0 ffffffff 19 800] ------- [19:255 -1:255 28 0] [0x2 3 1 [29 0] [21 4]] (REQUEST)
s 1.005820183 _15_ RTR  --- 0 AODV 48 [0 ffffffff 15 800] ------- [15:255 -1:255 29 0] [0x2 2 1 [29 0] [21 4]] (REQUEST)
r 1.005823844 _25_ MAC  --- 0 CTS 38 [3f4 19 0 0] 
s 1.005833844 _25_ MAC  --- 0 ARP 86 [13a 1d 19 806] ------- [REPLY 25/25 29/29]
r 1.006522569 _29_ MAC  --- 0 ARP 28 [13a 1d 19 806] ------- [REPLY 25/25 29/29]
s 1.006532569 _29_ MAC  --- 0 ACK 38 [0 19 0 0] 
r 1.006837295 _25_ MAC  --- 0 ACK 38 [0 19 0 0] 
s 1.007086569 _29_ MAC  --- 0 RTS 44 [5ae 19 1d 0] 
r 1.007439295 _25_ MAC  --- 0 RTS 44 [5ae 19 1d 0] 
s 1.007449295 _25_ MAC  --- 0 CTS 38 [474 1d 0 0] 
r 1.007754020 _29_ MAC  --- 0 CTS 38 [474 1d 0 0] 
s 1.007764020 _29_ MAC  --- 0 AODV 102 [13a 19 1d 800] ------- [29:255 21:255 30 25] [0x4 1 [29 4] 10.000000] (REPLY)
s 1.008234223 _1_ RTR  --- 0 AODV 48 [0 ffffffff 19 800] ------- [1:255 -1:255 28 0] [0x2 3 1 [29 0] [21 4]] (REQUEST)
r 1.008580745 _25_ MAC  --- 0 AODV 44 [13a 19 1d 800] ------- [29:255 21:255 30 25] [0x4 1 [29 4] 10.000000] (REPLY)
s 1.008590745 _25_ MAC  --- 0 ACK 38 [0 1d 0 0] 
r 1.008605745 _25_ RTR  --- 0 AODV 44 [13a 19 1d 800] ------- [29:255 21:255 30 25] [0x4 1 [29 4] 10.000000] (REPLY)
f 1.008605745 _25_ RTR  --- 0 AODV 44 [13a 19 1d 800] ------- [29:255 21:255 29 21] [0x4 2 [29 4] 10.000000] (REPLY)
r 1.008895470 _29_ MAC  --- 0 ACK 38 [0 1d 0 0] 
s 1.009194989 _20_ MAC  --- 0 AODV 106 [0 ffffffff 14 800] ------- [20:255 -1:255 29 0] [0x2 2 1 [29 0] [21 4]] (REQUEST)
s 1.009400068 _28_ RTR  --- 0 AODV 48 [0 ffffffff 15 800] ------- [28:255 -1:255 29 0] [0x2 2 1 [29 0] [21 4]] (REQUEST)
s 1.009573293 _23_ RTR  --- 0 AODV 48 [0 ffffffff 15 800] ------- [23:255 -1:255 29 0] [0x2 2 1 [29 0] [21 4]] (REQUEST)
r 1.010043233 _25_ MAC  --- 0 AODV 48 [0 ffffffff 14 800] ------- [20:255 -1:255 29 0] [0x2 2 1 [29 0] [21 4]] (REQUEST)
r 1.010043452 _26_ MAC  --- 0 AODV 48 [0 ffffffff 14 800] ------- [20:255 -1:255 29 0] [0x2 2 1 [29 0] [21 4]] (REQUEST)
r 1.010043454 _15_ MAC  --- 0 AODV 48 [0 ffffffff 14 800] ------- [20:255 -1:255 29 0] [0x2 2 1 [29 0] [21 4]] (REQUEST)
r 1.010043458 _1_ MAC  --- 0 AODV 48 [0 ffffffff 14 800] ------- [20:255 -1:255 29 0] [0x2 2 1 [29 0] [21 4]] (REQUEST)
r 1.010043491 _19_ MAC  --- 0 AODV 48 [0 ffffffff 14 800] ------- [20:255 -1:255 29 0] [0x2 2 1 [29 0] [21 4]] (REQUEST)
r 1.010043505 _21_ MAC  --- 0 AODV 48 [0 ffffffff 14 800] ------- [20:255 -1:255 29 0] [0x2 2 1 [29 0] [21 4]] (REQUEST)
r 1.010043667 _22_ MAC  --- 0 AODV 48 [0 ffffffff 14 800] ------- [20:255 -1:255 29 0] [0x2 2 1 [29 0] [21 4]] (REQUEST)
r 1.010043765 _28_ MAC  --- 0 AODV 48 [0 ffffffff 14 800] ------- [20:255 -1:255 29 0] [0x2 2 1 [29 0] [21 4]] (REQUEST)
r 1.010043811 _4_ MAC  --- 0 AODV 48 [0 ffffffff 14 800] ------- [20:255 -1:255 29 0] [0x2 2 1 [29 0] [21 4]] (REQUEST)
r 1.010068233 _25_ RTR  --- 0 AODV 48 [0 ffffffff 14 800] ------- [20:255 -1:255 29 0] [0x2 2 1 [29 0] [21 4]] (REQUEST)
r 1.010068452 _26_ RTR  --- 0 AODV 48 [0 ffffffff 14 800] ------- [20:255 -1:255 29 0] [0x2 2 1 [29 0] [21 4]] (REQUEST)
r 1.010068454 _15_ RTR  --- 0 AODV 48 [0 ffffffff 14 800] ------- [20:255 -1:255 29 0] [0x2 2 1 [29 0] [21 4]] (REQUEST)
r 1.010068458 _1_ RTR  --- 0 AODV 48 [0 ffffffff 14 800] ------- [20:255 -1:255 29 0] [0x2 2 1 [29 0] [21 4]] (REQUEST)
r 1.010068491 _19_ RTR  --- 0 AODV 48 [0 ffffffff 14 800] ------- [20:255 -1:255 29 0] [0x2 2 1 [29 0] [21 4]] (REQUEST)
r 1.010068505 _21_ RTR  --- 0 AODV 48 [0 ffffffff 14 800] ------- [20:255 -1:255 29 0] [0x2 2 1 [29 0] [21 4]] (REQUEST)
r 1.010068667 _22_ RTR  --- 0 AODV 48 [0 ffffffff 14 800] ------- [20:255 -1:255 29 0] [0x2 2 1 [29 0] [21 4]] (REQUEST)
r 1.010068765 _28_ RTR  --- 0 AODV 48 [0 ffffffff 14 800] ------- [20:255 -1:255 29 0] [0x2 2 1 [29 0] [21 4]] (REQUEST)
r 1.010068811 _4_ RTR  --- 0 AODV 48 [0 ffffffff 14 800] ------- [20:255 -1:255 29 0] [0x2 2 1 [29 0] [21 4]] (REQUEST)
s 1.010133491 _19_ MAC  --- 0 AODV 106 [0 ffffffff 13 800] ------- [19:255 -1:255 28 0] [0x2 3 1 [29 0] [21 4]] (REQUEST)
r 1.010981690 _26_ MAC  --- 0 AODV 48 [0 ffffffff 13 800] ------- [19:255 -1:255 28 0] [0x2 3 1 [29 0] [21 4]] (REQUEST)
r 1.010981734 _1_ MAC  --- 0 AODV 48 [0 ffffffff 13 800] ------- [19:255 -1:255 28 0] [0x2 3 1 [29 0] [21 4]] (REQUEST)
r 1.010981994 _20_ MAC  --- 0 AODV 48 [0 ffffffff 13 800] ------- [19:255 -1:255 28 0] [0x2 3 1 [29 0] [21 4]] (REQUEST)
r 1.010982123 _4_ MAC  --- 0 AODV 48 [0 ffffffff 13 800] ------- [19:255 -1:255 28 0] [0x2 3 1 [29 0] [21 4]] (REQUEST)
r 1.010982185 _0_ MAC  --- 0 AODV 48 [0 ffffffff 13 800] ------- [19:255 -1:255 28 0] [0x2 3 1 [29 0] [21 4]] (REQUEST)
r 1.010982206 _25_ MAC  --- 0 AODV 48 [0 ffffffff 13 800] ------- [19:255 -1:255 28 0] [0x2 3 1 [29 0] [21 4]] (REQUEST)
r 1.010982236 _15_ MAC  --- 0 AODV 48 [0 ffffffff 13 800] ------- [19:255 -1:255 28 0] [0x2 3 1 [29 0] [21 4]] (REQUEST)
r 1.010982257 _3_ MAC  --- 0 AODV 48 [0 ffffffff 13 800] ------- [19:255 -1:255 28 0] [0x2 3 1 [29 0] [21 4]] (REQUEST)
r 1.011006690 _26_ RTR  --- 0 AODV 48 [0 ffffffff 13 800] ------- [19:255 -1:255 28 0] [0x2 3 1 [29 0] [21 4]] (REQUEST)
r 1.011006734 _1_ RTR  --- 0 AODV 48 [0 ffffffff 13 800] ------- [19:255 -1:255 28 0] [0x2 3 1 [29 0] [21 4]] (REQUEST)
r 1.011006994 _20_ RTR  --- 0 AODV 48 [0 ffffffff 13 800] ------- [19:255 -1:255 28 0] [0x2 3 1 [29 0] [21 4]] (REQUEST)
r 1.011007123 _4_ RTR  --- 0 AODV 48 [0 ffffffff 13 800] ------- [19:255 -1:255 28 0] [0x2 3 1 [29 0] [21 4]] (REQUEST)
r 1.011007185 _0_ RTR  --- 0 AODV 48 [0 ffffffff 13 800] ------- [19:255 -1:255 28 0] [0x2 3 1 [29 0] [21 4]] (REQUEST)
r 1.011007206 _25_ RTR  --- 0 AODV 48 [0 ffffffff 13 800] ------- [19:255 -1:255 28 0] [0x2 3 1 [29 0] [21 4]] (REQUEST)
r 1.011007236 _15_ RTR  --- 0 AODV 48 [0 ffffffff 13 800] ------- [19:255 -1:255 28 0] [0x2 3 1 [29 0] [21 4]] (REQUEST)
r 1.011007257 _3_ RTR  --- 0 AODV 48 [0 ffffffff 13 800] ------- [19:255 -1:255 28 0] [0x2 3 1 [29 0] [21 4]] (REQUEST)
s 1.011102138 _24_ RTR  --- 0 AODV 48 [0 ffffffff 16 800] ------- [24:255 -1:255 28 0] [0x2 3 1 [29 0] [21 4]] (REQUEST)
s 1.011152206 _25_ MAC  --- 0 ARP 86 [0 ffffffff 19 806] ------- [REQUEST 25/25 0/21]
r 1.011840450 _20_ MAC  --- 0 ARP 28 [0 ffffffff 19 806] ------- [REQUEST 25/25 0/21]
r 1.011840656 _21_ MAC  --- 0 ARP 28 [0 ffffffff 19 806] ------- [REQUEST 25/25 0/21]
r 1.011840759 _28_ MAC  --- 0 ARP 28 [0 ffffffff 19 806] ------- [REQUEST 25/25 0/21]
r 1.011840816 _15_ MAC  --- 0 ARP 28 [0 ffffffff 19 806] ------- [REQUEST 25/25 0/21]
r 1.011840872 _22_ MAC  --- 0 ARP 28 [0 ffffffff 19 806] ------- [REQUEST 25/25 0/21]
r 1.011840910 _26_ MAC  --- 0 ARP 28 [0 ffffffff 19 806] ------- [REQUEST 25/25 0/21]
r 1.011840918 _1_ MAC  --- 0 ARP 28 [0 ffffffff 19 806] ------- [REQUEST 25/25 0/21]
r 1.011840921 _19_ MAC  --- 0 ARP 28 [0 ffffffff 19 806] ------- [REQUEST 25/25 0/21]
r 1.011840932 _29_ MAC  --- 0 ARP 28 [0 ffffffff 19 806] ------- [REQUEST 25/25 0/21]
s 1.011970816 _15_ MAC  --- 0 AODV 106 [0 ffffffff f 800] ------- [15:255 -1:255 29 0] [0x2 2 1 [29 0] [21 4]] (REQUEST)
s 1.012099242 _3_ RTR  --- 0 AODV 48 [0 ffffffff 13 800] ------- [3:255 -1:255 27 0] [0x2 4 1 [29 0] [21 4]] (REQUEST)
s 1.012594924 _26_ RTR  --- 0 AODV 48 [0 ffffffff 19 800] ------- [26:255 -1:255 28 0] [0x2 3 1 [29 0] [21 4]] (REQUEST)
r 1.012819243 _22_ MAC  --- 0 AODV 48 [0 ffffffff f 800] ------- [15:255 -1:255 29 0] [0x2 2 1 [29 0] [21 4]] (REQUEST)
r 1.012819266 _21_ MAC  --- 0 AODV 48 [0 ffffffff f 800] ------- [15:255 -1:255 29 0] [0x2 2 1 [29 0] [21 4]] (REQUEST)
r 1.012819280 _20_ MAC  --- 0 AODV 48 [0 ffffffff f 800] ------- [15:255 -1:255 29 0] [0x2 2 1 [29 0] [21 4]] (REQUEST)
r 1.012819365 _1_ MAC  --- 0 AODV 48 [0 ffffffff f 800] ------- [15:255 -1:255 29 0] [0x2 2 1 [29 0] [21 4]] (REQUEST)
r 1.012819393 _27_ MAC  --- 0 AODV 48 [0 ffffffff f 800] ------- [15:255 -1:255 29 0] [0x2 2 1 [29 0] [21 4]] (REQUEST)
r 1.012819396 _26_ MAC  --- 0 AODV 48 [0 ffffffff f 800] ------- [15:255 -1:255 29 0] [0x2 2 1 [29 0] [21 4]] (REQUEST)
r 1.012819425 _25_ MAC  --- 0 AODV 48 [0 ffffffff f 800] ------- [15:255 -1:255 29 0] [0x2 2 1 [29 0] [21 4]] (REQUEST)
r 1.012819434 _9_ MAC  --- 0 AODV 48 [0 ffffffff f 800] ------- [15:255 -1:255 29 0] [0x2 2 1 [29 0] [21 4]] (REQUEST)
r 1.012819454 _4_ MAC  --- 0 AODV 48 [0 ffffffff f 800] ------- [15:255 -1:255 29 0] [0x2 2 1 [29 0] [21 4]] (REQUEST)
r 1.012819499 _23_ MAC  --- 0 AODV 48 [0 ffffffff f 800] ------- [15:255 -1:255 29 0] [0x2 2 1 [29 0] [21 4]] (REQUEST)
r 1.012819561 _19_ MAC  --- 0 AODV 48 [0 ffffffff f 800] ------- [15:255 -1:255 29 0] [0x2 2 1 [29 0] [21 4]] (REQUEST)
r 1.012819631 _18_ MAC  --- 0 AODV 48 [0 ffffffff f 800] ------- [15:255 -1:255 29 0] [0x2 2 1 [29 0] [21 4]] (REQUEST)
r 1.012819647 _24_ MAC  --- 0 AODV 48 [0 ffffffff f 800] ------- [15:255 -1:255 29 0] [0x2 2 1 [29 0] [21 4]] (REQUEST)
r 1.012844243 _22_ RTR  --- 0 AODV 48 [0 ffffffff f 800] ------- [15:255 -1:255 29 0] [0x2 2 1 [29 0] [21 4]] (REQUEST)
r 1.012844266 _21_ RTR  --- 0 AODV 48 [0 ffffffff f 800] ------- [15:255 -1:255 29 0] [0x2 2 1 [29 0] [21 4]] (REQUEST)
r 1.012844280 _20_ RTR  --- 0 AODV 48 [0 ffffffff f 800] ------- [15:255 -1:255 29 0] [0x2 2 1 [29 0] [21 4]] (REQUEST)
r 1.012844365 _1_ RTR  --- 0 AODV 48 [0 ffffffff f 800] ------- [15:255 -1:255 29 0] [0x2 2 1 [29 0] [21 4]] (REQUEST)
r 1.012844393 _27_ RTR  --- 0 AODV 48 [0 ffffffff f 800] ------- [15:255 -1:255 29 0] [0x2 2 1 [29 0] [21 4]] (REQUEST)
r 1.012844396 _26_ RTR  --- 0 AODV 48 [0 ffffffff f 800] ------- [15:255 -1:255 29 0] [0x2 2 1 [29 0] [21 4]] (REQUEST)
r 1.012844425 _25_ RTR  --- 0 AODV 48 [0 ffffffff f 800] ------- [15:255 -1:255 29 0] [0x2 2 1 [29 0] [21 4]] (REQUEST)
r 1.012844434 _9_ RTR  --- 0 AODV 48 [0 ffffffff f 800] ------- [15:255 -1:255 29 0] [0x2 2 1 [29 0] [21 4]] (REQUEST)
r 1.012844454 _4_ RTR  --- 0 AODV 48 [0 ffffffff f 800] ------- [15:255 -1:255 29 0] [0x2 2 1 [29 0] [21 4]] (REQUEST)
r 1.012844499 _23_ RTR  --- 0 AODV 48 [0 ffffffff f 800] ------- [15:255 -1:255 29 0] [0x2 2 1 [29 0] [21 4]] (REQUEST)
r 1.012844561 _19_ RTR  --- 0 AODV 48 [0 ffffffff f 800] ------- [15:255 -1:255 29 0] [0x2 2 1 [29 0] [21 4]] (REQUEST)
r 1.012844631 _18_ RTR  --- 0 AODV 48 [0 ffffffff f 800] ------- [15:255 -1:255 29 0] [0x2 2 1 [29 0] [21 4]] (REQUEST)
r 1.012844647 _24_ RTR  --- 0 AODV 48 [0 ffffffff f 800] ------- [15:255 -1:255 29 0] [0x2 2 1 [29 0] [21 4]] (REQUEST)
s 1.012909499 _23_ MAC  --- 0 AODV 106 [0 ffffffff 17 800] ------- [23:255 -1:255 29 0] [0x2 2 1 [29 0] [21 4]] (REQUEST)
s 1.013428657 _18_ RTR  --- 0 AODV 48 [0 ffffffff f 800] ------- [18:255 -1:255 28 0] [0x2 3 1 [29 0] [21 4]] (REQUEST)
r 1.013757821 _22_ MAC  --- 0 AODV 48 [0 ffffffff 17 800] ------- [23:255 -1:255 29 0] [0x2 2 1 [29 0] [21 4]] (REQUEST)
r 1.013757876 _24_ MAC  --- 0 AODV 48 [0 ffffffff 17 800] ------- [23:255 -1:255 29 0] [0x2 2 1 [29 0] [21 4]] (REQUEST)
r 1.013758030 _21_ MAC  --- 0 AODV 48 [0 ffffffff 17 800] ------- [23:255 -1:255 29 0] [0x2 2 1 [29 0] [21 4]] (REQUEST)
r 1.013758183 _15_ MAC  --- 0 AODV 48 [0 ffffffff 17 800] ------- [23:255 -1:255 29 0] [0x2 2 1 [29 0] [21 4]] (REQUEST)
r 1.013758237 _27_ MAC  --- 0 AODV 48 [0 ffffffff 17 800] ------- [23:255 -1:255 29 0] [0x2 2 1 [29 0] [21 4]] (REQUEST)
r 1.013758286 _9_ MAC  --- 0 AODV 48 [0 ffffffff 17 800] ------- [23:255 -1:255 29 0] [0x2 2 1 [29 0] [21 4]] (REQUEST)
r 1.013782821 _22_ RTR  --- 0 AODV 48 [0 ffffffff 17 800] ------- [23:255 -1:255 29 0] [0x2 2 1 [29 0] [21 4]] (REQUEST)
r 1.013782876 _24_ RTR  --- 0 AODV 48 [0 ffffffff 17 800] ------- [23:255 -1:255 29 0] [0x2 2 1 [29 0] [21 4]] (REQUEST)
r 1.013783030 _21_ RTR  --- 0 AODV 48 [0 ffffffff 17 800] ------- [23:255 -1:255 29 0] [0x2 2 1 [29 0] [21 4]] (REQUEST)
r 1.013783183 _15_ RTR  --- 0 AODV 48 [0 ffffffff 17 800] ------- [23:255 -1:255 29 0] [0x2 2 1 [29 0] [21 4]] (REQUEST)
r 1.013783237 _27_ RTR  --- 0 AODV 48 [0 ffffffff 17 800] ------- [23:255 -1:255 29 0] [0x2 2 1 [29 0] [21 4]] (REQUEST)
r 1.013783286 _9_ RTR  --- 0 AODV 48 [0 ffffffff 17 800] ------- [23:255 -1:255 29 0] [0x2 2 1 [29 0] [21 4]] (REQUEST)
s 1.013928286 _9_ MAC  --- 0 AODV 106 [0 ffffffff 9 800] ------- [9:255 -1:255 28 0] [0x2 3 1 [29 0] [21 4]] (REQUEST)
r 1.014776339 _27_ MAC  --- 0 AODV 48 [0 ffffffff 9 800] ------- [9:255 -1:255 28 0] [0x2 3 1 [29 0] [21 4]] (REQUEST)
r 1.014776584 _12_ MAC  --- 0 AODV 48 [0 ffffffff 9 800] ------- [9:255 -1:255 28 0] [0x2 3 1 [29 0] [21 4]] (REQUEST)
r 1.014776750 _18_ MAC  --- 0 AODV 48 [0 ffffffff 9 800] ------- [9:255 -1:255 28 0] [0x2 3 1 [29 0] [21 4]] (REQUEST)
r 1.014776904 _24_ MAC  --- 0 AODV 48 [0 ffffffff 9 800] ------- [9:255 -1:255 28 0] [0x2 3 1 [29 0] [21 4]] (REQUEST)
r 1.014776904 _15_ MAC  --- 0 AODV 48 [0 ffffffff 9 800] ------- [9:255 -1:255 28 0] [0x2 3 1 [29 0] [21 4]] (REQUEST)
r 1.014776921 _6_ MAC  --- 0 AODV 48 [0 ffffffff 9 800] ------- [9:255 -1:255 28 0] [0x2 3 1 [29 0] [21 4]] (REQUEST)
r 1.014776985 _7_ MAC  --- 0 AODV 48 [0 ffffffff 9 800] ------- [9:255 -1:255 28 0] [0x2 3 1 [29 0] [21 4]] (REQUEST)
r 1.014777016 _4_ MAC  --- 0 AODV 48 [0 ffffffff 9 800] ------- [9:255 -1:255 28 0] [0x2 3 1 [29 0] [21 4]] (REQUEST)
r 1.014777040 _13_ MAC  --- 0 AODV 48 [0 ffffffff 9 800] ------- [9:255 -1:255 28 0] [0x2 3 1 [29 0] [21 4]] (REQUEST)
r 1.014777066 _22_ MAC  --- 0 AODV 48 [0 ffffffff 9 800] ------- [9:255 -1:255 28 0] [0x2 3 1 [29 0] [21 4]] (REQUEST)
r 1.014777073 _23_ MAC  --- 0 AODV 48 [0 ffffffff 9 800] ------- [9:255 -1:255 28 0] [0x2 3 1 [29 0] [21 4]] (REQUEST)
r 1.014777080 _10_ MAC  --- 0 AODV 48 [0 ffffffff 9 800] ------- [9:255 -1:255 28 0] [0x2 3 1 [29 0] [21 4]] (REQUEST)
r 1.014801339 _27_ RTR  --- 0 AODV 48 [0 ffffffff 9 800] ------- [9:255 -1:255 28 0] [0x2 3 1 [29 0] [21 4]] (REQUEST)
r 1.014801584 _12_ RTR  --- 0 AODV 48 [0 ffffffff 9 800] ------- [9:255 -1:255 28 0] [0x2 3 1 [29 0] [21 4]] (REQUEST)
r 1.014801750 _18_ RTR  --- 0 AODV 48 [0 ffffffff 9 800] ------- [9:255 -1:255 28 0] [0x2 3 1 [29 0] [21 4]] (REQUEST)
r 1.014801904 _24_ RTR  --- 0 AODV 48 [0 ffffffff 9 800] ------- [9:255 -1:255 28 0] [0x2 3 1 [29 0] [21 4]] (REQUEST)
r 1.014801904 _15_ RTR  --- 0 AODV 48 [0 ffffffff 9 800] ------- [9:255 -1:255 28 0] [0x2 3 1 [29 0] [21 4]] (REQUEST)
r 1.014801921 _6_ RTR  --- 0 AODV 48 [0 ffffffff 9 800] ------- [9:255 -1:255 28 0] [0x2 3 1 [29 0] [21 4]] (REQUEST)
r 1.014801985 _7_ RTR  --- 0 AODV 48 [0 ffffffff 9 800] ------- [9:255 -1:255 28 0] [0x2 3 1 [29 0] [21 4]] (REQUEST)
r 1.014802016 _4_ RTR  --- 0 AODV 48 [0 ffffffff 9 800] ------- [9:255 -1:255 28 0] [0x2 3 1 [29 0] [21 4]] (REQUEST)
r 1.014802040 _13_ RTR  --- 0 AODV 48 [0 ffffffff 9 800] ------- [9:255 -1:255 28 0] [0x2 3 1 [29 0] [21 4]] (REQUEST)
r 1.014802066 _22_ RTR  --- 0 AODV 48 [0 ffffffff 9 800] ------- [9:255 -1:255 28 0] [0x2 3 1 [29 0] [21 4]] (REQUEST)
r 1.014802073 _23_ RTR  --- 0 AODV 48 [0 ffffffff 9 800] ------- [9:255 -1:255 28 0] [0x2 3 1 [29 0] [21 4]] (REQUEST)
r 1.014802080 _10_ RTR  --- 0 AODV 48 [0 ffffffff 9 800] ------- [9:255 -1:255 28 0] [0x2 3 1 [29 0] [21 4]] (REQUEST)
s 1.014866904 _24_ MAC  --- 0 AODV 106 [0 ffffffff 18 800] ------- [24:255 -1:255 28 0] [0x2 3 1 [29 0] [21 4]] (REQUEST)
s 1.015062376 _0_ RTR  --- 0 AODV 48 [0 ffffffff 13 800] ------- [0:255 -1:255 27 0] [0x2 4 1 [29 0] [21 4]] (REQUEST)
s 1.015411659 _0_ MAC  --- 0 AODV 106 [0 ffffffff 0 800] ------- [0:255 -1:255 27 0] [0x2 4 1 [29 0] [21 4]] (REQUEST)
D 1.015412859 _15_ MAC  COL 0 AODV 106 [0 ffffffff 18 800] ------- [24:255 -1:255 28 0] [0x2 3 1 [29 0] [21 4]] (REQUEST)
r 1.015715280 _23_ MAC  --- 0 AODV 48 [0 ffffffff 18 800] ------- [24:255 -1:255 28 0] [0x2 3 1 [29 0] [21 4]] (REQUEST)
r 1.015715487 _27_ MAC  --- 0 AODV 48 [0 ffffffff 18 800] ------- [24:255 -1:255 28 0] [0x2 3 1 [29 0] [21 4]] (REQUEST)
r 1.015715521 _9_ MAC  --- 0 AODV 48 [0 ffffffff 18 800] ------- [24:255 -1:255 28 0] [0x2 3 1 [29 0] [21 4]] (REQUEST)
r 1.015715528 _22_ MAC  --- 0 AODV 48 [0 ffffffff 18 800] ------- [24:255 -1:255 28 0] [0x2 3 1 [29 0] [21 4]] (REQUEST)
r 1.015715558 _12_ MAC  --- 0 AODV 48 [0 ffffffff 18 800] ------- [24:255 -1:255 28 0] [0x2 3 1 [29 0] [21 4]] (REQUEST)
r 1.015740280 _23_ RTR  --- 0 AODV 48 [0 ffffffff 18 800] ------- [24:255 -1:255 28 0] [0x2 3 1 [29 0] [21 4]] (REQUEST)
r 1.015740487 _27_ RTR  --- 0 AODV 48 [0 ffffffff 18 800] ------- [24:255 -1:255 28 0] [0x2 3 1 [29 0] [21 4]] (REQUEST)
r 1.015740521 _9_ RTR  --- 0 AODV 48 [0 ffffffff 18 800] ------- [24:255 -1:255 28 0] [0x2 3 1 [29 0] [21 4]] (REQUEST)
r 1.015740528 _22_ RTR  --- 0 AODV 48 [0 ffffffff 18 800] ------- [24:255 -1:255 28 0] [0x2 3 1 [29 0] [21 4]] (REQUEST)
r 1.015740558 _12_ RTR  --- 0 AODV 48 [0 ffffffff 18 800] ------- [24:255 -1:255 28 0] [0x2 3 1 [29 0] [21 4]] (REQUEST)
s 1.016032619 _12_ RTR  --- 0 AODV 48 [0 ffffffff 9 800] ------- [12:255 -1:255 27 0] [0x2 4 1 [29 0] [21 4]] (REQUEST)
D 1.016259963 _3_ MAC  COL 0 AODV 106 [0 ffffffff 0 800] ------- [0:255 -1:255 27 0] [0x2 4 1 [29 0] [21 4]] (REQUEST)
r 1.016260159 _2_ MAC  --- 0 AODV 48 [0 ffffffff 0 800] ------- [0:255 -1:255 27 0] [0x2 4 1 [29 0] [21 4]] (REQUEST)
D 1.016260308 _4_ MAC  COL 0 AODV 106 [0 ffffffff 0 800] ------- [0:255 -1:255 27 0] [0x2 4 1 [29 0] [21 4]] (REQUEST)
D 1.016260341 _5_ MAC  COL 0 AODV 106 [0 ffffffff 0 800] ------- [0:255 -1:255 27 0] [0x2 4 1 [29 0] [21 4]] (REQUEST)
D 1.016260353 _19_ MAC  COL 0 AODV 106 [0 ffffffff 0 800] ------- [0:255 -1:255 27 0] [0x2 4 1 [29 0] [21 4]] (REQUEST)
D 1.016260359 _26_ MAC  COL 0 AODV 106 [0 ffffffff 0 800] ------- [0:255 -1:255 27 0] [0x2 4 1 [29 0] [21 4]] (REQUEST)
D 1.016260364 _1_ MAC  COL 0 AODV 106 [0 ffffffff 0 800] ------- [0:255 -1:255 27 0] [0x2 4 1 [29 0] [21 4]] (REQUEST)
r 1.016285159 _2_ RTR  --- 0 AODV 48 [0 ffffffff 0 800] ------- [0:255 -1:255 27 0] [0x2 4 1 [29 0] [21 4]] (REQUEST)
s 1.016370169 _28_ MAC  --- 0 AODV 106 [0 ffffffff 1c 800] ------- [28:255 -1:255 29 0] [0x2 2 1 [29 0] [21 4]] (REQUEST)
s 1.016560734 _2_ RTR  --- 0 AODV 48 [0 ffffffff 0 800] ------- [2:255 -1:255 26 0] [0x2 5 1 [29 0] [21 4]] (REQUEST)
s 1.016893963 _3_ MAC  --- 0 AODV 106 [0 ffffffff 3 800] ------- [3:255 -1:255 27 0] [0x2 4 1 [29 0] [21 4]] (REQUEST)
D 1.016895106 _20_ MAC  COL 0 AODV 106 [0 ffffffff 1c 800] ------- [28:255 -1:255 29 0] [0x2 2 1 [29 0] [21 4]] (REQUEST)
r 1.017218531 _29_ MAC  --- 0 AODV 48 [0 ffffffff 1c 800] ------- [28:255 -1:255 29 0] [0x2 2 1 [29 0] [21 4]] (REQUEST)
r 1.017218682 _21_ MAC  --- 0 AODV 48 [0 ffffffff 1c 800] ------- [28:255 -1:255 29 0] [0x2 2 1 [29 0] [21 4]] (REQUEST)
r 1.017218721 _25_ MAC  --- 0 AODV 48 [0 ffffffff 1c 800] ------- [28:255 -1:255 29 0] [0x2 2 1 [29 0] [21 4]] (REQUEST)
r 1.017218867 _22_ MAC  --- 0 AODV 48 [0 ffffffff 1c 800] ------- [28:255 -1:255 29 0] [0x2 2 1 [29 0] [21 4]] (REQUEST)
r 1.017243531 _29_ RTR  --- 0 AODV 48 [0 ffffffff 1c 800] ------- [28:255 -1:255 29 0] [0x2 2 1 [29 0] [21 4]] (REQUEST)
r 1.017243682 _21_ RTR  --- 0 AODV 48 [0 ffffffff 1c 800] ------- [28:255 -1:255 29 0] [0x2 2 1 [29 0] [21 4]] (REQUEST)
r 1.017243721 _25_ RTR  --- 0 AODV 48 [0 ffffffff 1c 800] ------- [28:255 -1:255 29 0] [0x2 2 1 [29 0] [21 4]] (REQUEST)
r 1.017243867 _22_ RTR  --- 0 AODV 48 [0 ffffffff 1c 800] ------- [28:255 -1:255 29 0] [0x2 2 1 [29 0] [21 4]] (REQUEST)
s 1.017371923 _7_ RTR  --- 0 AODV 48 [0 ffffffff 9 800] ------- [7:255 -1:255 27 0] [0x2 4 1 [29 0] [21 4]] (REQUEST)
s 1.017691130 _4_ RTR  --- 0 AODV 48 [0 ffffffff 14 800] ------- [4:255 -1:255 28 0] [0x2 3 1 [29 0] [21 4]] (REQUEST)
r 1.017742266 _0_ MAC  --- 0 AODV 48 [0 ffffffff 3 800] ------- [3:255 -1:255 27 0] [0x2 4 1 [29 0] [21 4]] (REQUEST)
r 1.017742375 _2_ MAC  --- 0 AODV 48 [0 ffffffff 3 800] ------- [3:255 -1:255 27 0] [0x2 4 1 [29 0] [21 4]] (REQUEST)
D 1.017742403 _4_ MAC  COL 0 AODV 106 [0 ffffffff 3 800] ------- [3:255 -1:255 27 0] [0x2 4 1 [29 0] [21 4]] (REQUEST)
r 1.017742417 _5_ MAC  --- 0 AODV 48 [0 ffffffff 3 800] ------- [3:255 -1:255 27 0] [0x2 4 1 [29 0] [21 4]] (REQUEST)
r 1.017742562 _8_ MAC  --- 0 AODV 48 [0 ffffffff 3 800] ------- [3:255 -1:255 27 0] [0x2 4 1 [29 0] [21 4]] (REQUEST)
r 1.017742627 _7_ MAC  --- 0 AODV 48 [0 ffffffff 3 800] ------- [3:255 -1:255 27 0] [0x2 4 1 [29 0] [21 4]] (REQUEST)
D 1.017742638 _1_ MAC  COL 0 AODV 106 [0 ffffffff 3 800] ------- [3:255 -1:255 27 0] [0x2 4 1 [29 0] [21 4]] (REQUEST)
D 1.017742652 _26_ MAC  COL 0 AODV 106 [0 ffffffff 3 800] ------- [3:255 -1:255 27 0] [0x2 4 1 [29 0] [21 4]] (REQUEST)
D 1.017742709 _18_ MAC  COL 0 AODV 106 [0 ffffffff 3 800] ------- [3:255 -1:255 27 0] [0x2 4 1 [29 0] [21 4]] (REQUEST)
D 1.017742729 _19_ MAC  COL 0 AODV 106 [0 ffffffff 3 800] ------- [3:255 -1:255 27 0] [0x2 4 1 [29 0] [21 4]] (REQUEST)
r 1.017742764 _17_ MAC  --- 0 AODV 48 [0 ffffffff 3 800] ------- [3:255 -1:255 27 0] [0x2 4 1 [29 0] [21 4]] (REQUEST)
r 1.017767266 _0_ RTR  --- 0 AODV 48 [0 ffffffff 3 800] ------- [3:255 -1:255 27 0] [0x2 4 1 [29 0] [21 4]] (REQUEST)
r 1.017767375 _2_ RTR  --- 0 AODV 48 [0 ffffffff 3 800] ------- [3:255 -1:255 27 0] [0x2 4 1 [29 0] [21 4]] (REQUEST)
r 1.017767417 _5_ RTR  --- 0 AODV 48 [0 ffffffff 3 800] ------- [3:255 -1:255 27 0] [0x2 4 1 [29 0] [21 4]] (REQUEST)