M 0.00000 0 (663.00, 484.00, 0.00), (0.00, 0.00), 0.00
M 0.00000 21 (263.00, 306.00, 0.00), (150.00, 150.00), 40.00
M 0.00000 20 (350.00, 434.00, 0.00), (150.00, 150.00), 40.00
s 1.000000000 _21_ AGT  --- 0 cbr 1000 [0 0 0 0] ------- [21:0 17:0 32 0] [0] 0 0
r 1.000000000 _21_ RTR  --- 0 cbr 1000 [0 0 0 0] ------- [21:0 17:0 32 0] [0] 0 0
s 1.000000000 _21_ RTR  --- 0 AODV 48 [0 0 0 0] ------- [21:255 -1:255 30 0] [0x2 1 1 [17 0] [21 4]] (REQUEST)
s 1.000535000 _21_ MAC  --- 0 AODV 106 [0 ffffffff 15 800] ------- [21:255 -1:255 30 0] [0x2 1 1 [17 0] [21 4]] (REQUEST)
r 1.001383227 _22_ MAC  --- 0 AODV 48 [0 ffffffff 15 800] ------- [21:255 -1:255 30 0] [0x2 1 1 [17 0] [21 4]] (REQUEST)
r 1.001383445 _15_ MAC  --- 0 AODV 48 [0 ffffffff 15 800] ------- [21:255 -1:255 30 0] [0x2 1 1 [17 0] [21 4]] (REQUEST)
r 1.001383516 _20_ MAC  --- 0 AODV 48 [0 ffffffff 15 800] ------- [21:255 -1:255 30 0] [0x2 1 1 [17 0] [21 4]] (REQUEST)
r 1.001383529 _23_ MAC  --- 0 AODV 48 [0 ffffffff 15 800] ------- [21:255 -1:255 30 0] [0x2 1 1 [17 0] [21 4]] (REQUEST)
r 1.001408227 _22_ RTR  --- 0 AODV 48 [0 ffffffff 15 800] ------- [21:255 -1:255 30 0] [0x2 1 1 [17 0] [21 4]] (REQUEST)
r 1.001408445 _15_ RTR  --- 0 AODV 48 [0 ffffffff 15 800] ------- [21:255 -1:255 30 0] [0x2 1 1 [17 0] [21 4]] (REQUEST)
r 1.001408516 _20_ RTR  --- 0 AODV 48 [0 ffffffff 15 800] ------- [21:255 -1:255 30 0] [0x2 1 1 [17 0] [21 4]] (REQUEST)
r 1.001408529 _23_ RTR  --- 0 AODV 48 [0 ffffffff 15 800] ------- [21:255 -1:255 30 0] [0x2 1 1 [17 0] [21 4]] (REQUEST)
s 1.001550273 _22_ RTR  --- 0 AODV 48 [0 ffffffff 15 800] ------- [22:255 -1:255 29 0] [0x2 2 1 [17 0] [21 4]] (REQUEST)
s 1.001785273 _22_ MAC  --- 0 AODV 106 [0 ffffffff 16 800] ------- [22:255 -1:255 29 0] [0x2 2 1 [17 0] [21 4]] (REQUEST)
s 1.002289672 _15_ RTR  --- 0 AODV 48 [0 ffffffff 15 800] ------- [15:255 -1:255 29 0] [0x2 2 1 [17 0] [21 4]] (REQUEST)
r 1.002633500 _21_ MAC  --- 0 AODV 48 [0 ffffffff 16 800] ------- [22:255 -1:255 29 0] [0x2 2 1 [17 0] [21 4]] (REQUEST)
r 1.002633595 _23_ MAC  --- 0 AODV 48 [0 ffffffff 16 800] ------- [22:255 -1:255 29 0] [0x2 2 1 [17 0] [21 4]] (REQUEST)
r 1.002633700 _15_ MAC  --- 0 AODV 48 [0 ffffffff 16 800] ------- [22:255 -1:255 29 0] [0x2 2 1 [17 0] [21 4]] (REQUEST)
r 1.002633898 _24_ MAC  --- 0 AODV 48 [0 ffffffff 16 800] ------- [22:255 -1:255 29 0] [0x2 2 1 [17 0] [21 4]] (REQUEST)
r 1.002633951 _20_ MAC  --- 0 AODV 48 [0 ffffffff 16 800] ------- [22:255 -1:255 29 0] [0x2 2 1 [17 0] [21 4]] (REQUEST)
r 1.002634053 _9_ MAC  --- 0 AODV 48 [0 ffffffff 16 800] ------- [22:255 -1:255 29 0] [0x2 2 1 [17 0] [21 4]] (REQUEST)
r 1.002658500 _21_ RTR  --- 0 AODV 48 [0 ffffffff 16 800] ------- [22:255 -1:255 29 0] [0x2 2 1 [17 0] [21 4]] (REQUEST)
r 1.002658595 _23_ RTR  --- 0 AODV 48 [0 ffffffff 16 800] ------- [22:255 -1:255 29 0] [0x2 2 1 [17 0] [21 4]] (REQUEST)
r 1.002658700 _15_ RTR  --- 0 AODV 48 [0 ffffffff 16 800] ------- [22:255 -1:255 29 0] [0x2 2 1 [17 0] [21 4]] (REQUEST)
r 1.002658898 _24_ RTR  --- 0 AODV 48 [0 ffffffff 16 800] ------- [22:255 -1:255 29 0] [0x2 2 1 [17 0] [21 4]] (REQUEST)
r 1.002658951 _20_ RTR  --- 0 AODV 48 [0 ffffffff 16 800] ------- [22:255 -1:255 29 0] [0x2 2 1 [17 0] [21 4]] (REQUEST)
r 1.002659053 _9_ RTR  --- 0 AODV 48 [0 ffffffff 16 800] ------- [22:255 -1:255 29 0] [0x2 2 1 [17 0] [21 4]] (REQUEST)
s 1.002883700 _15_ MAC  --- 0 AODV 106 [0 ffffffff f 800] ------- [15:255 -1:255 29 0] [0x2 2 1 [17 0] [21 4]] (REQUEST)
r 1.003732127 _22_ MAC  --- 0 AODV 48 [0 ffffffff f 800] ------- [15:255 -1:255 29 0] [0x2 2 1 [17 0] [21 4]] (REQUEST)
r 1.003732145 _21_ MAC  --- 0 AODV 48 [0 ffffffff f 800] ------- [15:255 -1:255 29 0] [0x2 2 1 [17 0] [21 4]] (REQUEST)
r 1.003732161 _20_ MAC  --- 0 AODV 48 [0 ffffffff f 800] ------- [15:255 -1:255 29 0] [0x2 2 1 [17 0] [21 4]] (REQUEST)
r 1.003732249 _1_ MAC  --- 0 AODV 48 [0 ffffffff f 800] ------- [15:255 -1:255 29 0] [0x2 2 1 [17 0] [21 4]] (REQUEST)
r 1.003732318 _9_ MAC  --- 0 AODV 48 [0 ffffffff f 800] ------- [15:255 -1:255 29 0] [0x2 2 1 [17 0] [21 4]] (REQUEST)
r 1.003732338 _4_ MAC  --- 0 AODV 48 [0 ffffffff f 800] ------- [15:255 -1:255 29 0] [0x2 2 1 [17 0] [21 4]] (REQUEST)
r 1.003732384 _23_ MAC  --- 0 AODV 48 [0 ffffffff f 800] ------- [15:255 -1:255 29 0] [0x2 2 1 [17 0] [21 4]] (REQUEST)
r 1.003732445 _19_ MAC  --- 0 AODV 48 [0 ffffffff f 800] ------- [15:255 -1:255 29 0] [0x2 2 1 [17 0] [21 4]] (REQUEST)
r 1.003732515 _18_ MAC  --- 0 AODV 48 [0 ffffffff f 800] ------- [15:255 -1:255 29 0] [0x2 2 1 [17 0] [21 4]] (REQUEST)
r 1.003732531 _24_ MAC  --- 0 AODV 48 [0 ffffffff f 800] ------- [15:255 -1:255 29 0] [0x2 2 1 [17 0] [21 4]] (REQUEST)
r 1.003757127 _22_ RTR  --- 0 AODV 48 [0 ffffffff f 800] ------- [15:255 -1:255 29 0] [0x2 2 1 [17 0] [21 4]] (REQUEST)
r 1.003757145 _21_ RTR  --- 0 AODV 48 [0 ffffffff f 800] ------- [15:255 -1:255 29 0] [0x2 2 1 [17 0] [21 4]] (REQUEST)
r 1.003757161 _20_ RTR  --- 0 AODV 48 [0 ffffffff f 800] ------- [15:255 -1:255 29 0] [0x2 2 1 [17 0] [21 4]] (REQUEST)
r 1.003757249 _1_ RTR  --- 0 AODV 48 [0 ffffffff f 800] ------- [15:255 -1:255 29 0] [0x2 2 1 [17 0] [21 4]] (REQUEST)
r 1.003757318 _9_ RTR  --- 0 AODV 48 [0 ffffffff f 800] ------- [15:255 -1:255 29 0] [0x2 2 1 [17 0] [21 4]] (REQUEST)
r 1.003757338 _4_ RTR  --- 0 AODV 48 [0 ffffffff f 800] ------- [15:255 -1:255 29 0] [0x2 2 1 [17 0] [21 4]] (REQUEST)
r 1.003757384 _23_ RTR  --- 0 AODV 48 [0 ffffffff f 800] ------- [15:255 -1:255 29 0] [0x2 2 1 [17 0] [21 4]] (REQUEST)
r 1.003757445 _19_ RTR  --- 0 AODV 48 [0 ffffffff f 800] ------- [15:255 -1:255 29 0] [0x2 2 1 [17 0] [21 4]] (REQUEST)
r 1.003757515 _18_ RTR  --- 0 AODV 48 [0 ffffffff f 800] ------- [15:255 -1:255 29 0] [0x2 2 1 [17 0] [21 4]] (REQUEST)
r 1.003757531 _24_ RTR  --- 0 AODV 48 [0 ffffffff f 800] ------- [15:255 -1:255 29 0] [0x2 2 1 [17 0] [21 4]] (REQUEST)
s 1.004185284 _4_ RTR  --- 0 AODV 48 [0 ffffffff f 800] ------- [4:255 -1:255 28 0] [0x2 3 1 [17 0] [21 4]] (REQUEST)
s 1.004500284 _4_ MAC  --- 0 AODV 106 [0 ffffffff 4 800] ------- [4:255 -1:255 28 0] [0x2 3 1 [17 0] [21 4]] (REQUEST)
s 1.004895598 _18_ RTR  --- 0 AODV 48 [0 ffffffff f 800] ------- [18:255 -1:255 28 0] [0x2 3 1 [17 0] [21 4]] (REQUEST)
r 1.005348706 _1_ MAC  --- 0 AODV 48 [0 ffffffff 4 800] ------- [4:255 -1:255 28 0] [0x2 3 1 [17 0] [21 4]] (REQUEST)
r 1.005348724 _3_ MAC  --- 0 AODV 48 [0 ffffffff 4 800] ------- [4:255 -1:255 28 0] [0x2 3 1 [17 0] [21 4]] (REQUEST)
r 1.005348771 _18_ MAC  --- 0 AODV 48 [0 ffffffff 4 800] ------- [4:255 -1:255 28 0] [0x2 3 1 [17 0] [21 4]] (REQUEST)
r 1.005348848 _7_ MAC  --- 0 AODV 48 [0 ffffffff 4 800] ------- [4:255 -1:255 28 0] [0x2 3 1 [17 0] [21 4]] (REQUEST)
r 1.005348915 _19_ MAC  --- 0 AODV 48 [0 ffffffff 4 800] ------- [4:255 -1:255 28 0] [0x2 3 1 [17 0] [21 4]] (REQUEST)
r 1.005348922 _15_ MAC  --- 0 AODV 48 [0 ffffffff 4 800] ------- [4:255 -1:255 28 0] [0x2 3 1 [17 0] [21 4]] (REQUEST)
r 1.005348933 _0_ MAC  --- 0 AODV 48 [0 ffffffff 4 800] ------- [4:255 -1:255 28 0] [0x2 3 1 [17 0] [21 4]] (REQUEST)
r 1.005349014 _9_ MAC  --- 0 AODV 48 [0 ffffffff 4 800] ------- [4:255 -1:255 28 0] [0x2 3 1 [17 0] [21 4]] (REQUEST)
r 1.005349019 _8_ MAC  --- 0 AODV 48 [0 ffffffff 4 800] ------- [4:255 -1:255 28 0] [0x2 3 1 [17 0] [21 4]] (REQUEST)
r 1.005349027 _5_ MAC  --- 0 AODV 48 [0 ffffffff 4 800] ------- [4:255 -1:255 28 0] [0x2 3 1 [17 0] [21 4]] (REQUEST)
r 1.005349100 _20_ MAC  --- 0 AODV 48 [0 ffffffff 4 800] ------- [4:255 -1:255 28 0] [0x2 3 1 [17 0] [21 4]] (REQUEST)
r 1.005349112 _2_ MAC  --- 0 AODV 48 [0 ffffffff 4 800] ------- [4:255 -1:255 28 0] [0x2 3 1 [17 0] [21 4]] (REQUEST)
r 1.005373706 _1_ RTR  --- 0 AODV 48 [0 ffffffff 4 800] ------- [4:255 -1:255 28 0] [0x2 3 1 [17 0] [21 4]] (REQUEST)
r 1.005373724 _3_ RTR  --- 0 AODV 48 [0 ffffffff 4 800] ------- [4:255 -1:255 28 0] [0x2 3 1 [17 0] [21 4]] (REQUEST)
r 1.005373771 _18_ RTR  --- 0 AODV 48 [0 ffffffff 4 800] ------- [4:255 -1:255 28 0] [0x2 3 1 [17 0] [21 4]] (REQUEST)
r 1.005373848 _7_ RTR  --- 0 AODV 48 [0 ffffffff 4 800] ------- [4:255 -1:255 28 0] [0x2 3 1 [17 0] [21 4]] (REQUEST)
r 1.005373915 _19_ RTR  --- 0 AODV 48 [0 ffffffff 4 800] ------- [4:255 -1:255 28 0] [0x2 3 1 [17 0] [21 4]] (REQUEST)
r 1.005373922 _15_ RTR  --- 0 AODV 48 [0 ffffffff 4 800] ------- [4:255 -1:255 28 0] [0x2 3 1 [17 0] [21 4]] (REQUEST)
r 1.005373933 _0_ RTR  --- 0 AODV 48 [0 ffffffff 4 800] ------- [4:255 -1:255 28 0] [0x2 3 1 [17 0] [21 4]] (REQUEST)
r 1.005374014 _9_ RTR  --- 0 AODV 48 [0 ffffffff 4 800] ------- [4:255 -1:255 28 0] [0x2 3 1 [17 0] [21 4]] (REQUEST)
r 1.005374019 _8_ RTR  --- 0 AODV 48 [0 ffffffff 4 800] ------- [4:255 -1:255 28 0] [0x2 3 1 [17 0] [21 4]] (REQUEST)
r 1.005374027 _5_ RTR  --- 0 AODV 48 [0 ffffffff 4 800] ------- [4:255 -1:255 28 0] [0x2 3 1 [17 0] [21 4]] (REQUEST)
r 1.005374100 _20_ RTR  --- 0 AODV 48 [0 ffffffff 4 800] ------- [4:255 -1:255 28 0] [0x2 3 1 [17 0] [21 4]] (REQUEST)
r 1.005374112 _2_ RTR  --- 0 AODV 48 [0 ffffffff 4 800] ------- [4:255 -1:255 28 0] [0x2 3 1 [17 0] [21 4]] (REQUEST)
s 1.005398703 _1_ RTR  --- 0 AODV 48 [0 ffffffff f 800] ------- [1:255 -1:255 28 0] [0x2 3 1 [17 0] [21 4]] (REQUEST)
s 1.005558771 _18_ MAC  --- 0 AODV 106 [0 ffffffff 12 800] ------- [18:255 -1:255 28 0] [0x2 3 1 [17 0] [21 4]] (REQUEST)
s 1.005749844 _9_ RTR  --- 0 AODV 48 [0 ffffffff 16 800] ------- [9:255 -1:255 28 0] [0x2 3 1 [17 0] [21 4]] (REQUEST)
s 1.005820250 _20_ RTR  --- 0 AODV 48 [0 ffffffff 15 800] ------- [20:255 -1:255 29 0] [0x2 2 1 [17 0] [21 4]] (REQUEST)
s 1.006315112 _3_ RTR  --- 0 AODV 48 [0 ffffffff 4 800] ------- [3:255 -1:255 27 0] [0x2 4 1 [17 0] [21 4]] (REQUEST)
r 1.006407012 _7_ MAC  --- 0 AODV 48 [0 ffffffff 12 800] ------- [18:255 -1:255 28 0] [0x2 3 1 [17 0] [21 4]] (REQUEST)
r 1.006407199 _10_ MAC  --- 0 AODV 48 [0 ffffffff 12 800] ------- [18:255 -1:255 28 0] [0x2 3 1 [17 0] [21 4]] (REQUEST)
r 1.006407235 _9_ MAC  --- 0 AODV 48 [0 ffffffff 12 800] ------- [18:255 -1:255 28 0] [0x2 3 1 [17 0] [21 4]] (REQUEST)
r 1.006407258 _4_ MAC  --- 0 AODV 48 [0 ffffffff 12 800] ------- [18:255 -1:255 28 0] [0x2 3 1 [17 0] [21 4]] (REQUEST)
r 1.006407266 _6_ MAC  --- 0 AODV 48 [0 ffffffff 12 800] ------- [18:255 -1:255 28 0] [0x2 3 1 [17 0] [21 4]] (REQUEST)
r 1.006407332 _13_ MAC  --- 0 AODV 48 [0 ffffffff 12 800] ------- [18:255 -1:255 28 0] [0x2 3 1 [17 0] [21 4]] (REQUEST)
r 1.006407337 _8_ MAC  --- 0 AODV 48 [0 ffffffff 12 800] ------- [18:255 -1:255 28 0] [0x2 3 1 [17 0] [21 4]] (REQUEST)
r 1.006407344 _12_ MAC  --- 0 AODV 48 [0 ffffffff 12 800] ------- [18:255 -1:255 28 0] [0x2 3 1 [17 0] [21 4]] (REQUEST)
r 1.006407516 _3_ MAC  --- 0 AODV 48 [0 ffffffff 12 800] ------- [18:255 -1:255 28 0] [0x2 3 1 [17 0] [21 4]] (REQUEST)
r 1.006407528 _5_ MAC  --- 0 AODV 48 [0 ffffffff 12 800] ------- [18:255 -1:255 28 0] [0x2 3 1 [17 0] [21 4]] (REQUEST)
r 1.006407533 _11_ MAC  --- 0 AODV 48 [0 ffffffff 12 800] ------- [18:255 -1:255 28 0] [0x2 3 1 [17 0] [21 4]] (REQUEST)
r 1.006407586 _15_ MAC  --- 0 AODV 48 [0 ffffffff 12 800] ------- [18:255 -1:255 28 0] [0x2 3 1 [17 0] [21 4]] (REQUEST)
r 1.006432012 _7_ RTR  --- 0 AODV 48 [0 ffffffff 12 800] ------- [18:255 -1:255 28 0] [0x2 3 1 [17 0] [21 4]] (REQUEST)
r 1.006432199 _10_ RTR  --- 0 AODV 48 [0 ffffffff 12 800] ------- [18:255 -1:255 28 0] [0x2 3 1 [17 0] [21 4]] (REQUEST)
r 1.006432235 _9_ RTR  --- 0 AODV 48 [0 ffffffff 12 800] ------- [18:255 -1:255 28 0] [0x2 3 1 [17 0] [21 4]] (REQUEST)
r 1.006432258 _4_ RTR  --- 0 AODV 48 [0 ffffffff 12 800] ------- [18:255 -1:255 28 0] [0x2 3 1 [17 0] [21 4]] (REQUEST)
r 1.006432266 _6_ RTR  --- 0 AODV 48 [0 ffffffff 12 800] ------- [18:255 -1:255 28 0] [0x2 3 1 [17 0] [21 4]] (REQUEST)
r 1.006432332 _13_ RTR  --- 0 AODV 48 [0 ffffffff 12 800] ------- [18:255 -1:255 28 0] [0x2 3 1 [17 0] [21 4]] (REQUEST)
r 1.006432337 _8_ RTR  --- 0 AODV 48 [0 ffffffff 12 800] ------- [18:255 -1:255 28 0] [0x2 3 1 [17 0] [21 4]] (REQUEST)
r 1.006432344 _12_ RTR  --- 0 AODV 48 [0 ffffffff 12 800] ------- [18:255 -1:255 28 0] [0x2 3 1 [17 0] [21 4]] (REQUEST)
r 1.006432516 _3_ RTR  --- 0 AODV 48 [0 ffffffff 12 800] ------- [18:255 -1:255 28 0] [0x2 3 1 [17 0] [21 4]] (REQUEST)
r 1.006432528 _5_ RTR  --- 0 AODV 48 [0 ffffffff 12 800] ------- [18:255 -1:255 28 0] [0x2 3 1 [17 0] [21 4]] (REQUEST)
r 1.006432533 _11_ RTR  --- 0 AODV 48 [0 ffffffff 12 800] ------- [18:255 -1:255 28 0] [0x2 3 1 [17 0] [21 4]] (REQUEST)
r 1.006432586 _15_ RTR  --- 0 AODV 48 [0 ffffffff 12 800] ------- [18:255 -1:255 28 0] [0x2 3 1 [17 0] [21 4]] (REQUEST)
s 1.006637235 _9_ MAC  --- 0 AODV 106 [0 ffffffff 9 800] ------- [9:255 -1:255 28 0] [0x2 3 1 [17 0] [21 4]] (REQUEST)
r 1.007485532 _12_ MAC  --- 0 AODV 48 [0 ffffffff 9 800] ------- [9:255 -1:255 28 0] [0x2 3 1 [17 0] [21 4]] (REQUEST)
r 1.007485698 _18_ MAC  --- 0 AODV 48 [0 ffffffff 9 800] ------- [9:255 -1:255 28 0] [0x2 3 1 [17 0] [21 4]] (REQUEST)
r 1.007485852 _24_ MAC  --- 0 AODV 48 [0 ffffffff 9 800] ------- [9:255 -1:255 28 0] [0x2 3 1 [17 0] [21 4]] (REQUEST)
r 1.007485852 _15_ MAC  --- 0 AODV 48 [0 ffffffff 9 800] ------- [9:255 -1:255 28 0] [0x2 3 1 [17 0] [21 4]] (REQUEST)
r 1.007485869 _6_ MAC  --- 0 AODV 48 [0 ffffffff 9 800] ------- [9:255 -1:255 28 0] [0x2 3 1 [17 0] [21 4]] (REQUEST)
r 1.007485933 _7_ MAC  --- 0 AODV 48 [0 ffffffff 9 800] ------- [9:255 -1:255 28 0] [0x2 3 1 [17 0] [21 4]] (REQUEST)
r 1.007485964 _4_ MAC  --- 0 AODV 48 [0 ffffffff 9 800] ------- [9:255 -1:255 28 0] [0x2 3 1 [17 0] [21 4]] (REQUEST)
r 1.007485988 _13_ MAC  --- 0 AODV 48 [0 ffffffff 9 800] ------- [9:255 -1:255 28 0] [0x2 3 1 [17 0] [21 4]] (REQUEST)
r 1.007486014 _22_ MAC  --- 0 AODV 48 [0 ffffffff 9 800] ------- [9:255 -1:255 28 0] [0x2 3 1 [17 0] [21 4]] (REQUEST)
r 1.007486021 _23_ MAC  --- 0 AODV 48 [0 ffffffff 9 800] ------- [9:255 -1:255 28 0] [0x2 3 1 [17 0] [21 4]] (REQUEST)
r 1.007486028 _10_ MAC  --- 0 AODV 48 [0 ffffffff 9 800] ------- [9:255 -1:255 28 0] [0x2 3 1 [17 0] [21 4]] (REQUEST)
r 1.007510532 _12_ RTR  --- 0 AODV 48 [0 ffffffff 9 800] ------- [9:255 -1:255 28 0] [0x2 3 1 [17 0] [21 4]] (REQUEST)
r 1.007510698 _18_ RTR  --- 0 AODV 48 [0 ffffffff 9 800] ------- [9:255 -1:255 28 0] [0x2 3 1 [17 0] [21 4]] (REQUEST)
r 1.007510852 _24_ RTR  --- 0 AODV 48 [0 ffffffff 9 800] ------- [9:255 -1:255 28 0] [0x2 3 1 [17 0] [21 4]] (REQUEST)
r 1.007510852 _15_ RTR  --- 0 AODV 48 [0 ffffffff 9 800] ------- [9:255 -1:255 28 0] [0x2 3 1 [17 0] [21 4]] (REQUEST)
r 1.007510869 _6_ RTR  --- 0 AODV 48 [0 ffffffff 9 800] ------- [9:255 -1:255 28 0] [0x2 3 1 [17 0] [21 4]] (REQUEST)
r 1.007510933 _7_ RTR  --- 0 AODV 48 [0 ffffffff 9 800] ------- [9:255 -1:255 28 0] [0x2 3 1 [17 0] [21 4]] (REQUEST)
r 1.007510964 _4_ RTR  --- 0 AODV 48 [0 ffffffff 9 800] ------- [9:255 -1:255 28 0] [0x2 3 1 [17 0] [21 4]] (REQUEST)
r 1.007510988 _13_ RTR  --- 0 AODV 48 [0 ffffffff 9 800] ------- [9:255 -1:255 28 0] [0x2 3 1 [17 0] [21 4]] (REQUEST)
r 1.007511014 _22_ RTR  --- 0 AODV 48 [0 ffffffff 9 800] ------- [9:255 -1:255 28 0] [0x2 3 1 [17 0] [21 4]] (REQUEST)
r 1.007511021 _23_ RTR  --- 0 AODV 48 [0 ffffffff 9 800] ------- [9:255 -1:255 28 0] [0x2 3 1 [17 0] [21 4]] (REQUEST)
r 1.007511028 _10_ RTR  --- 0 AODV 48 [0 ffffffff 9 800] ------- [9:255 -1:255 28 0] [0x2 3 1 [17 0] [21 4]] (REQUEST)
s 1.007954898 _8_ RTR  --- 0 AODV 48 [0 ffffffff 4 800] ------- [8:255 -1:255 27 0] [0x2 4 1 [17 0] [21 4]] (REQUEST)
s 1.008120355 _3_ MAC  --- 0 AODV 106 [0 ffffffff 3 800] ------- [3:255 -1:255 27 0] [0x2 4 1 [17 0] [21 4]] (REQUEST)
s 1.008844455 _10_ RTR  --- 0 AODV 48 [0 ffffffff 12 800] ------- [10:255 -1:255 27 0] [0x2 4 1 [17 0] [21 4]] (REQUEST)
s 1.008861343 _0_ RTR  --- 0 AODV 48 [0 ffffffff 4 800] ------- [0:255 -1:255 27 0] [0x2 4 1 [17 0] [21 4]] (REQUEST)
r 1.008968659 _0_ MAC  --- 0 AODV 48 [0 ffffffff 3 800] ------- [3:255 -1:255 27 0] [0x2 4 1 [17 0] [21 4]] (REQUEST)
r 1.008968768 _2_ MAC  --- 0 AODV 48 [0 ffffffff 3 800] ------- [3:255 -1:255 27 0] [0x2 4 1 [17 0] [21 4]] (REQUEST)
r 1.008968795 _4_ MAC  --- 0 AODV 48 [0 ffffffff 3 800] ------- [3:255 -1:255 27 0] [0x2 4 1 [17 0] [21 4]] (REQUEST)
r 1.008968809 _5_ MAC  --- 0 AODV 48 [0 ffffffff 3 800] ------- [3:255 -1:255 27 0] [0x2 4 1 [17 0] [21 4]] (REQUEST)
r 1.008968969 _8_ MAC  --- 0 AODV 48 [0 ffffffff 3 800] ------- [3:255 -1:255 27 0] [0x2 4 1 [17 0] [21 4]] (REQUEST)
r 1.008969019 _7_ MAC  --- 0 AODV 48 [0 ffffffff 3 800] ------- [3:255 -1:255 27 0] [0x2 4 1 [17 0] [21 4]] (REQUEST)
r 1.008969030 _1_ MAC  --- 0 AODV 48 [0 ffffffff 3 800] ------- [3:255 -1:255 27 0] [0x2 4 1 [17 0] [21 4]] (REQUEST)
r 1.008969101 _18_ MAC  --- 0 AODV 48 [0 ffffffff 3 800] ------- [3:255 -1:255 27 0] [0x2 4 1 [17 0] [21 4]] (REQUEST)
r 1.008969121 _19_ MAC  --- 0 AODV 48 [0 ffffffff 3 800] ------- [3:255 -1:255 27 0] [0x2 4 1 [17 0] [21 4]] (REQUEST)
r 1.008969172 _17_ MAC  --- 0 AODV 48 [0 ffffffff 3 800] ------- [3:255 -1:255 27 0] [0x2 4 1 [17 0] [21 4]] (REQUEST)
r 1.008993659 _0_ RTR  --- 0 AODV 48 [0 ffffffff 3 800] ------- [3:255 -1:255 27 0] [0x2 4 1 [17 0] [21 4]] (REQUEST)
r 1.008993768 _2_ RTR  --- 0 AODV 48 [0 ffffffff 3 800] ------- [3:255 -1:255 27 0] [0x2 4 1 [17 0] [21 4]] (REQUEST)
r 1.008993795 _4_ RTR  --- 0 AODV 48 [0 ffffffff 3 800] ------- [3:255 -1:255 27 0] [0x2 4 1 [17 0] [21 4]] (REQUEST)
r 1.008993809 _5_ RTR  --- 0 AODV 48 [0 ffffffff 3 800] ------- [3:255 -1:255 27 0] [0x2 4 1 [17 0] [21 4]] (REQUEST)
r 1.008993969 _8_ RTR  --- 0 AODV 48 [0 ffffffff 3 800] ------- [3:255 -1:255 27 0] [0x2 4 1 [17 0] [21 4]] (REQUEST)
r 1.008994019 _7_ RTR  --- 0 AODV 48 [0 ffffffff 3 800] ------- [3:255 -1:255 27 0] [0x2 4 1 [17 0] [21 4]] (REQUEST)
r 1.008994030 _1_ RTR  --- 0 AODV 48 [0 ffffffff 3 800] ------- [3:255 -1:255 27 0] [0x2 4 1 [17 0] [21 4]] (REQUEST)
r 1.008994101 _18_ RTR  --- 0 AODV 48 [0 ffffffff 3 800] ------- [3:255 -1:255 27 0] [0x2 4 1 [17 0] [21 4]] (REQUEST)
r 1.008994121 _19_ RTR  --- 0 AODV 48 [0 ffffffff 3 800] ------- [3:255 -1:255 27 0] [0x2 4 1 [17 0] [21 4]] (REQUEST)
r 1.008994172 _17_ RTR  --- 0 AODV 48 [0 ffffffff 3 800] ------- [3:255 -1:255 27 0] [0x2 4 1 [17 0] [21 4]] (REQUEST)
s 1.008994172 _17_ RTR  --- 0 AODV 44 [0 0 0 0] ------- [17:255 21:255 30 3] [0x4 1 [17 4] 10.000000] (REPLY)
s 1.009047549 _24_ RTR  --- 0 AODV 48 [0 ffffffff 16 800] ------- [24:255 -1:255 28 0] [0x2 3 1 [17 0] [21 4]] (REQUEST)
s 1.009118659 _0_ MAC  --- 0 AODV 106 [0 ffffffff 0 800] ------- [0:255 -1:255 27 0] [0x2 4 1 [17 0] [21 4]] (REQUEST)
s 1.009400083 _23_ RTR  --- 0 AODV 48 [0 ffffffff 15 800] ------- [23:255 -1:255 29 0] [0x2 2 1 [17 0] [21 4]] (REQUEST)
s 1.009460884 _5_ RTR  --- 0 AODV 48 [0 ffffffff 4 800] ------- [5:255 -1:255 27 0] [0x2 4 1 [17 0] [21 4]] (REQUEST)
s 1.009584050 _24_ MAC  --- 0 AODV 106 [0 ffffffff 18 800] ------- [24:255 -1:255 28 0] [0x2 3 1 [17 0] [21 4]] (REQUEST)
r 1.009966963 _3_ MAC  --- 0 AODV 48 [0 ffffffff 0 800] ------- [0:255 -1:255 27 0] [0x2 4 1 [17 0] [21 4]] (REQUEST)
r 1.009967159 _2_ MAC  --- 0 AODV 48 [0 ffffffff 0 800] ------- [0:255 -1:255 27 0] [0x2 4 1 [17 0] [21 4]] (REQUEST)
r 1.009967308 _4_ MAC  --- 0 AODV 48 [0 ffffffff 0 800] ------- [0:255 -1:255 27 0] [0x2 4 1 [17 0] [21 4]] (REQUEST)
r 1.009967341 _5_ MAC  --- 0 AODV 48 [0 ffffffff 0 800] ------- [0:255 -1:255 27 0] [0x2 4 1 [17 0] [21 4]] (REQUEST)
r 1.009967353 _19_ MAC  --- 0 AODV 48 [0 ffffffff 0 800] ------- [0:255 -1:255 27 0] [0x2 4 1 [17 0] [21 4]] (REQUEST)
r 1.009967364 _1_ MAC  --- 0 AODV 48 [0 ffffffff 0 800] ------- [0:255 -1:255 27 0] [0x2 4 1 [17 0] [21 4]] (REQUEST)
r 1.009991963 _3_ RTR  --- 0 AODV 48 [0 ffffffff 0 800] ------- [0:255 -1:255 27 0] [0x2 4 1 [17 0] [21 4]] (REQUEST)
r 1.009992159 _2_ RTR  --- 0 AODV 48 [0 ffffffff 0 800] ------- [0:255 -1:255 27 0] [0x2 4 1 [17 0] [21 4]] (REQUEST)
r 1.009992308 _4_ RTR  --- 0 AODV 48 [0 ffffffff 0 800] ------- [0:255 -1:255 27 0] [0x2 4 1 [17 0] [21 4]] (REQUEST)
r 1.009992341 _5_ RTR  --- 0 AODV 48 [0 ffffffff 0 800] ------- [0:255 -1:255 27 0] [0x2 4 1 [17 0] [21 4]] (REQUEST)
r 1.009992353 _19_ RTR  --- 0 AODV 48 [0 ffffffff 0 800] ------- [0:255 -1:255 27 0] [0x2 4 1 [17 0] [21 4]] (REQUEST)
r 1.009992364 _1_ RTR  --- 0 AODV 48 [0 ffffffff 0 800] ------- [0:255 -1:255 27 0] [0x2 4 1 [17 0] [21 4]] (REQUEST)
s 1.010158122 _19_ RTR  --- 0 AODV 48 [0 ffffffff f 800] ------- [19:255 -1:255 28 0] [0x2 3 1 [17 0] [21 4]] (REQUEST)
r 1.010432426 _23_ MAC  --- 0 AODV 48 [0 ffffffff 18 800] ------- [24:255 -1:255 28 0] [0x2 3 1 [17 0] [21 4]] (REQUEST)
D 1.010432668 _9_ MAC  COL 0 AODV 106 [0 ffffffff 18 800] ------- [24:255 -1:255 28 0] [0x2 3 1 [17 0] [21 4]] (REQUEST)
D 1.010432675 _22_ MAC  COL 0 AODV 106 [0 ffffffff 18 800] ------- [24:255 -1:255 28 0] [0x2 3 1 [17 0] [21 4]] (REQUEST)
D 1.010432704 _12_ MAC  COL 0 AODV 106 [0 ffffffff 18 800] ------- [24:255 -1:255 28 0] [0x2 3 1 [17 0] [21 4]] (REQUEST)
D 1.010432881 _15_ MAC  COL 0 AODV 106 [0 ffffffff 18 800] ------- [24:255 -1:255 28 0] [0x2 3 1 [17 0] [21 4]] (REQUEST)
r 1.010457426 _23_ RTR  --- 0 AODV 48 [0 ffffffff 18 800] ------- [24:255 -1:255 28 0] [0x2 3 1 [17 0] [21 4]] (REQUEST)
s 1.010541600 _17_ MAC  --- 0 ARP 86 [0 ffffffff 11 806] ------- [REQUEST 17/17 0/3]
s 1.010560600 _2_ RTR  --- 0 AODV 48 [0 ffffffff 4 800] ------- [2:255 -1:255 27 0] [0x2 4 1 [17 0] [21 4]] (REQUEST)
s 1.010962426 _23_ MAC  --- 0 AODV 106 [0 ffffffff 17 800] ------- [23:255 -1:255 29 0] [0x2 2 1 [17 0] [21 4]] (REQUEST)
r 1.011229897 _16_ MAC  --- 0 ARP 28 [0 ffffffff 11 806] ------- [REQUEST 17/17 0/3]
r 1.011230032 _5_ MAC  --- 0 ARP 28 [0 ffffffff 11 806] ------- [REQUEST 17/17 0/3]
r 1.011230041 _2_ MAC  --- 0 ARP 28 [0 ffffffff 11 806] ------- [REQUEST 17/17 0/3]
r 1.011230212 _8_ MAC  --- 0 ARP 28 [0 ffffffff 11 806] ------- [REQUEST 17/17 0/3]
r 1.011230334 _11_ MAC  --- 0 ARP 28 [0 ffffffff 11 806] ------- [REQUEST 17/17 0/3]
r 1.011230416 _3_ MAC  --- 0 ARP 28 [0 ffffffff 11 806] ------- [REQUEST 17/17 0/3]
s 1.011340032 _5_ MAC  --- 0 AODV 106 [0 ffffffff 5 800] ------- [5:255 -1:255 27 0] [0x2 4 1 [17 0] [21 4]] (REQUEST)
D 1.011341248 _9_ MAC  COL 0 AODV 106 [0 ffffffff 17 800] ------- [23:255 -1:255 29 0] [0x2 2 1 [17 0] [21 4]] (REQUEST)
r 1.011810747 _22_ MAC  --- 0 AODV 48 [0 ffffffff 17 800] ------- [23:255 -1:255 29 0] [0x2 2 1 [17 0] [21 4]] (REQUEST)
r 1.011810802 _24_ MAC  --- 0 AODV 48 [0 ffffffff 17 800] ------- [23:255 -1:255 29 0] [0x2 2 1 [17 0] [21 4]] (REQUEST)
r 1.011810954 _21_ MAC  --- 0 AODV 48 [0 ffffffff 17 800] ------- [23:255 -1:255 29 0] [0x2 2 1 [17 0] [21 4]] (REQUEST)
D 1.011811109 _15_ MAC  COL 0 AODV 106 [0 ffffffff 17 800] ------- [23:255 -1:255 29 0] [0x2 2 1 [17 0] [21 4]] (REQUEST)
r 1.011835747 _22_ RTR  --- 0 AODV 48 [0 ffffffff 17 800] ------- [23:255 -1:255 29 0] [0x2 2 1 [17 0] [21 4]] (REQUEST)
r 1.011835802 _24_ RTR  --- 0 AODV 48 [0 ffffffff 17 800] ------- [23:255 -1:255 29 0] [0x2 2 1 [17 0] [21 4]] (REQUEST)
r 1.011835954 _21_ RTR  --- 0 AODV 48 [0 ffffffff 17 800] ------- [23:255 -1:255 29 0] [0x2 2 1 [17 0] [21 4]] (REQUEST)
r 1.012188317 _8_ MAC  --- 0 AODV 48 [0 ffffffff 5 800] ------- [5:255 -1:255 27 0] [0x2 4 1 [17 0] [21 4]] (REQUEST)
r 1.012188331 _2_ MAC  --- 0 AODV 48 [0 ffffffff 5 800] ------- [5:255 -1:255 27 0] [0x2 4 1 [17 0] [21 4]] (REQUEST)
r 1.012188465 _17_ MAC  --- 0 AODV 48 [0 ffffffff 5 800] ------- [5:255 -1:255 27 0] [0x2 4 1 [17 0] [21 4]] (REQUEST)
r 1.012188486 _3_ MAC  --- 0 AODV 48 [0 ffffffff 5 800] ------- [5:255 -1:255 27 0] [0x2 4 1 [17 0] [21 4]] (REQUEST)
r 1.012188489 _16_ MAC  --- 0 AODV 48 [0 ffffffff 5 800] ------- [5:255 -1:255 27 0] [0x2 4 1 [17 0] [21 4]] (REQUEST)
D 1.012188582 _7_ MAC  COL 0 AODV 106 [0 ffffffff 5 800] ------- [5:255 -1:255 27 0] [0x2 4 1 [17 0] [21 4]] (REQUEST)
r 1.012188640 _11_ MAC  --- 0 AODV 48 [0 ffffffff 5 800] ------- [5:255 -1:255 27 0] [0x2 4 1 [17 0] [21 4]] (REQUEST)
r 1.012188714 _0_ MAC  --- 0 AODV 48 [0 ffffffff 5 800] ------- [5:255 -1:255 27 0] [0x2 4 1 [17 0] [21 4]] (REQUEST)
D 1.012188723 _10_ MAC  COL 0 AODV 106 [0 ffffffff 5 800] ------- [5:255 -1:255 27 0] [0x2 4 1 [17 0] [21 4]] (REQUEST)
D 1.012188776 _4_ MAC  COL 0 AODV 106 [0 ffffffff 5 800] ------- [5:255 -1:255 27 0] [0x2 4 1 [17 0] [21 4]] (REQUEST)
D 1.012188789 _18_ MAC  COL 0 AODV 106 [0 ffffffff 5 800] ------- [5:255 -1:255 27 0] [0x2 4 1 [17 0] [21 4]] (REQUEST)
r 1.012213317 _8_ RTR  --- 0 AODV 48 [0 ffffffff 5 800] ------- [5:255 -1:255 27 0] [0x2 4 1 [17 0] [21 4]] (REQUEST)
r 1.012213331 _2_ RTR  --- 0 AODV 48 [0 ffffffff 5 800] ------- [5:255 -1:255 27 0] [0x2 4 1 [17 0] [21 4]] (REQUEST)
r 1.012213465 _17_ RTR  --- 0 AODV 48 [0 ffffffff 5 800] ------- [5:255 -1:255 27 0] [0x2 4 1 [17 0] [21 4]] (REQUEST)
r 1.012213486 _3_ RTR  --- 0 AODV 48 [0 ffffffff 5 800] ------- [5:255 -1:255 27 0] [0x2 4 1 [17 0] [21 4]] (REQUEST)
r 1.012213489 _16_ RTR  --- 0 AODV 48 [0 ffffffff 5 800] ------- [5:255 -1:255 27 0] [0x2 4 1 [17 0] [21 4]] (REQUEST)
r 1.012213640 _11_ RTR  --- 0 AODV 48 [0 ffffffff 5 800] ------- [5:255 -1:255 27 0] [0x2 4 1 [17 0] [21 4]] (REQUEST)
r 1.012213714 _0_ RTR  --- 0 AODV 48 [0 ffffffff 5 800] ------- [5:255 -1:255 27 0] [0x2 4 1 [17 0] [21 4]] (REQUEST)
s 1.012338317 _8_ MAC  --- 0 AODV 106 [0 ffffffff 8 800] ------- [8:255 -1:255 27 0] [0x2 4 1 [17 0] [21 4]] (REQUEST)
r 1.013186602 _5_ MAC  --- 0 AODV 48 [0 ffffffff 8 800] ------- [8:255 -1:255 27 0] [0x2 4 1 [17 0] [21 4]] (REQUEST)
r 1.013186645 _7_ MAC  --- 0 AODV 48 [0 ffffffff 8 800] ------- [8:255 -1:255 27 0] [0x2 4 1 [17 0] [21 4]] (REQUEST)
r 1.013186696 _11_ MAC  --- 0 AODV 48 [0 ffffffff 8 800] ------- [8:255 -1:255 27 0] [0x2 4 1 [17 0] [21 4]] (REQUEST)
r 1.013186725 _10_ MAC  --- 0 AODV 48 [0 ffffffff 8 800] ------- [8:255 -1:255 27 0] [0x2 4 1 [17 0] [21 4]] (REQUEST)
r 1.013186796 _16_ MAC  --- 0 AODV 48 [0 ffffffff 8 800] ------- [8:255 -1:255 27 0] [0x2 4 1 [17 0] [21 4]] (REQUEST)
r 1.013186883 _18_ MAC  --- 0 AODV 48 [0 ffffffff 8 800] ------- [8:255 -1:255 27 0] [0x2 4 1 [17 0] [21 4]] (REQUEST)
r 1.013186899 _2_ MAC  --- 0 AODV 48 [0 ffffffff 8 800] ------- [8:255 -1:255 27 0] [0x2 4 1 [17 0] [21 4]] (REQUEST)
r 1.013186929 _17_ MAC  --- 0 AODV 48 [0 ffffffff 8 800] ------- [8:255 -1:255 27 0] [0x2 4 1 [17 0] [21 4]] (REQUEST)
r 1.013186931 _3_ MAC  --- 0 AODV 48 [0 ffffffff 8 800] ------- [8:255 -1:255 27 0] [0x2 4 1 [17 0] [21 4]] (REQUEST)
r 1.013186960 _14_ MAC  --- 0 AODV 48 [0 ffffffff 8 800] ------- [8:255 -1:255 27 0] [0x2 4 1 [17 0] [21 4]] (REQUEST)
r 1.013187022 _13_ MAC  --- 0 AODV 48 [0 ffffffff 8 800] ------- [8:255 -1:255 27 0] [0x2 4 1 [17 0] [21 4]] (REQUEST)
r 1.013187052 _4_ MAC  --- 0 AODV 48 [0 ffffffff 8 800] ------- [8:255 -1:255 27 0] [0x2 4 1 [17 0] [21 4]] (REQUEST)
r 1.013187062 _6_ MAC  --- 0 AODV 48 [0 ffffffff 8 800] ------- [8:255 -1:255 27 0] [0x2 4 1 [17 0] [21 4]] (REQUEST)
s 1.013205821 _13_ RTR  --- 0 AODV 48 [0 ffffffff 12 800] ------- [13:255 -1:255 27 0] [0x2 4 1 [17 0] [21 4]] (REQUEST)
r 1.013211602 _5_ RTR  --- 0 AODV 48 [0 ffffffff 8 800] ------- [8:255 -1:255 27 0] [0x2 4 1 [17 0] [21 4]] (REQUEST)
r 1.013211645 _7_ RTR  --- 0 AODV 48 [0 ffffffff 8 800] ------- [8:255 -1:255 27 0] [0x2 4 1 [17 0] [21 4]] (REQUEST)
r 1.013211696 _11_ RTR  --- 0 AODV 48 [0 ffffffff 8 800] ------- [8:255 -1:255 27 0] [0x2 4 1 [17 0] [21 4]] (REQUEST)
r 1.013211725 _10_ RTR  --- 0 AODV 48 [0 ffffffff 8 800] ------- [8:255 -1:255 27 0] [0x2 4 1 [17 0] [21 4]] (REQUEST)
r 1.013211796 _16_ RTR  --- 0 AODV 48 [0 ffffffff 8 800] ------- [8:255 -1:255 27 0] [0x2 4 1 [17 0] [21 4]] (REQUEST)
r 1.013211883 _18_ RTR  --- 0 AODV 48 [0 ffffffff 8 800] ------- [8:255 -1:255 27 0] [0x2 4 1 [17 0] [21 4]] (REQUEST)
r 1.013211899 _2_ RTR  --- 0 AODV 48 [0 ffffffff 8 800] ------- [8:255 -1:255 27 0] [0x2 4 1 [17 0] [21 4]] (REQUEST)
r 1.013211929 _17_ RTR  --- 0 AODV 48 [0 ffffffff 8 800] ------- [8:255 -1:255 27 0] [0x2 4 1 [17 0] [21 4]] (REQUEST)
r 1.013211931 _3_ RTR  --- 0 AODV 48 [0 ffffffff 8 800] ------- [8:255 -1:255 27 0] [0x2 4 1 [17 0] [21 4]] (REQUEST)
r 1.013211960 _14_ RTR  --- 0 AODV 48 [0 ffffffff 8 800] ------- [8:255 -1:255 27 0] [0x2 4 1 [17 0] [21 4]] (REQUEST)
r 1.013212022 _13_ RTR  --- 0 AODV 48 [0 ffffffff 8 800] ------- [8:255 -1:255 27 0] [0x2 4 1 [17 0] [21 4]] (REQUEST)
r 1.013212052 _4_ RTR  --- 0 AODV 48 [0 ffffffff 8 800] ------- [8:255 -1:255 27 0] [0x2 4 1 [17 0] [21 4]] (REQUEST)
r 1.013212062 _6_ RTR  --- 0 AODV 48 [0 ffffffff 8 800] ------- [8:255 -1:255 27 0] [0x2 4 1 [17 0] [21 4]] (REQUEST)
s 1.013356899 _2_ MAC  --- 0 AODV 106 [0 ffffffff 2 800] ------- [2:255 -1:255 27 0] [0x2 4 1 [17 0] [21 4]] (REQUEST)
s 1.013444133 _7_ RTR  --- 0 AODV 48 [0 ffffffff 4 800] ------- [7:255 -1:255 27 0] [0x2 4 1 [17 0] [21 4]] (REQUEST)
s 1.014054663 _12_ RTR  --- 0 AODV 48 [0 ffffffff 12 800] ------- [12:255 -1:255 27 0] [0x2 4 1 [17 0] [21 4]] (REQUEST)
r 1.014205198 _5_ MAC  --- 0 AODV 48 [0 ffffffff 2 800] ------- [2:255 -1:255 27 0] [0x2 4 1 [17 0] [21 4]] (REQUEST)
r 1.014205311 _3_ MAC  --- 0 AODV 48 [0 ffffffff 2 800] ------- [2:255 -1:255 27 0] [0x2 4 1 [17 0] [21 4]] (REQUEST)
r 1.014205340 _17_ MAC  --- 0 AODV 48 [0 ffffffff 2 800] ------- [2:255 -1:255 27 0] [0x2 4 1 [17 0] [21 4]] (REQUEST)
r 1.014205399 _0_ MAC  --- 0 AODV 48 [0 ffffffff 2 800] ------- [2:255 -1:255 27 0] [0x2 4 1 [17 0] [21 4]] (REQUEST)
r 1.014205481 _8_ MAC  --- 0 AODV 48 [0 ffffffff 2 800] ------- [2:255 -1:255 27 0] [0x2 4 1 [17 0] [21 4]] (REQUEST)
r 1.014205526 _16_ MAC  --- 0 AODV 48 [0 ffffffff 2 800] ------- [2:255 -1:255 27 0] [0x2 4 1 [17 0] [21 4]] (REQUEST)
r 1.014205711 _7_ MAC  --- 0 AODV 48 [0 ffffffff 2 800] ------- [2:255 -1:255 27 0] [0x2 4 1 [17 0] [21 4]] (REQUEST)
r 1.014205727 _4_ MAC  --- 0 AODV 48 [0 ffffffff 2 800] ------- [2:255 -1:255 27 0] [0x2 4 1 [17 0] [21 4]] (REQUEST)
r 1.014230198 _5_ RTR  --- 0 AODV 48 [0 ffffffff 2 800] ------- [2:255 -1:255 27 0] [0x2 4 1 [17 0] [21 4]] (REQUEST)