n -t * -s 0  -x 663 -y 484 -Z 0 -z 30  -v circle -c black
n -t * -s 1  -x 466 -y 407 -Z 0 -z 30  -v circle -c black
n -t * -s 2  -x 791 -y 406 -Z 0 -z 30  -v circle -c black
n -t * -s 3  -x 668 -y 393 -Z 0 -z 30  -v circle -c black
n -t * -s 4  -x 558 -y 320 -Z 0 -z 30  -v circle -c black
n -t * -s 5  -x 781 -y 317 -Z 0 -z 30  -v circle -c black
n -t * -s 6  -x 650 -y 40 -Z 0 -z 30  -v circle -c black
n -t * -s 7  -x 671 -y 194 -Z 0 -z 30  -v circle -c black
n -t * -s 8  -x 761 -y 234 -Z 0 -z 30  -v circle -c black
n -t * -s 9  -x 476 -y 117 -Z 0 -z 30  -v circle -c black
n -t * -s 10  -x 714 -y 121 -Z 0 -z 30  -v circle -c black
n -t * -s 11  -x 825 -y 140 -Z 0 -z 30  -v circle -c black
n -t * -s 12  -x 509 -y 34 -Z 0 -z 30  -v circle -c black
n -t * -s 13  -x 687 -y 36 -Z 0 -z 30  -v circle -c black
n -t * -s 14  -x 822 -y 51 -Z 0 -z 30  -v circle -c black
n -t * -s 15  -x 373 -y 271 -Z 0 -z 30  -v circle -c black
n -t * -s 16  -x 903 -y 255 -Z 0 -z 30  -v circle -c black
n -t * -s 17  -x 908 -y 344 -Z 0 -z 30  -v circle -c black
n -t * -s 18  -x 600 -y 180 -Z 0 -z 30  -v circle -c black
n -t * -s 19  -x 455 -y 479 -Z 0 -z 30  -v circle -c black
n -t * -s 20  -x 350 -y 434 -Z 0 -z 30  -v circle -c black
n -t * -s 21  -x 263 -y 306 -Z 0 -z 30  -v circle -c black
n -t * -s 22  -x 261 -y 209 -Z 0 -z 30  -v circle -c black
n -t * -s 23  -x 240 -y 115 -Z 0 -z 30  -v circle -c black
n -t * -s 24  -x 313 -y 29 -Z 0 -z 30  -v circle -c black
n -t * -s 25  -x 250 -y 404 -Z 0 -z 30  -v circle -c black
n -t * -s 26  -x 463 -y 420 -Z 0 -z 30  -v circle -c black
n -t * -s 27  -x 461 -y 122 -Z 0 -z 30  -v circle -c black
n -t * -s 28  -x 100 -y 343 -Z 0 -z 30  -v circle -c black
n -t * -s 29  -x 36 -y 431 -Z 0 -z 30  -v circle -c black
V -t * -v 1.0a5 -a 0
W -t * -x 1186 -y 600
A -t * -n 1 -p 0 -o 0x7fffffff -c 30 -a 1
A -t * -h 1 -m 1073741823 -s 0
n -t 0 -s 1 -S COLOR -c red -o red -i red -I red
n -t 0 -s 1 -S DLABEL -l "Attacker" -L ""
n -t 0 -s 13 -S COLOR -c red -o red -i red -I red
n -t 0 -s 13 -S DLABEL -l "Attacker" -L ""
n -t 0 -s 23 -S COLOR -c green -o green -i green -I green
n -t 0 -s 23 -S DLABEL -l "Source" -L ""
n -t 0 -s 21 -S COLOR -c green -o green -i green -I green
n -t 0 -s 21 -S DLABEL -l "Source" -L ""
n -t 0 -s 29 -S COLOR -c blue -o blue -i blue -I blue
n -t 0 -s 29 -S DLABEL -l "Destination" -L ""
n -t 0 -s 9 -S COLOR -c blue -o blue -i blue -I blue
n -t 0 -s 9 -S DLABEL -l "Destination" -L ""
n -t 0.000000 -s 21 -x 263.000000 -y 306.000000 -U -24.820317 -V -31.368007 -T 6.567201
n -t 0.000000 -s 20 -x 350.000000 -y 434.000000 -U -24.447462 -V -31.659463 -T 8.180808
n -t 0.000000 -s 8 -x 761.000000 -y 234.000000 -U -4.241110 -V 2.648205 -T 100.445408
n -t 0.000000 -s 11 -x 825.000000 -y 140.000000 -U -3.402255 -V 3.663967 -T 76.419893
n -t 0.000000 -s 17 -x 908.000000 -y 344.000000 -U -4.931034 -V -0.827586 -T 29.000000
n -t 0.000000 -s 25 -x 250.000000 -y 404.000000 -U 2.378120 -V 4.398243 -T 39.106521
n -t 1.000000 -s 2 -x 791.000000 -y 406.000000 -U -4.681646 -V -1.755617 -T 37.593616
n -t 1.000000 -s 3 -x 668.000000 -y 393.000000 -U 0.907737 -V 4.916911 -T 13.219682
n -t 1.000000 -s 29 -x 36.000000 -y 431.000000 -U 2.160355 -V -4.509198 -T 68.970138
n -t 1.000000 -s 12 -x 509.000000 -y 34.000000 -U 4.986622 -V -0.365512 -T 38.302480
n -t 1.000000 -s 23 -x 240.000000 -y 115.000000 -U -4.861937 -V -1.166865 -T 25.709920
n -t 1.000000 -s 14 -x 822.000000 -y 51.000000 -U -4.889582 -V 1.044982 -T 128.231821
n -t 1.000000 -s 15 -x 373.000000 -y 271.000000 -U 0.219225 -V 4.995192 -T 63.861412
n -t 1.000000 -s 18 -x 600.000000 -y 180.000000 -U -4.753959 -V -1.549152 -T 103.282331
n -t 1.000000 -s 19 -x 455.000000 -y 479.000000 -U -3.448276 -V -3.620690 -T 81.200000
n -t 1.000000 -s 26 -x 463.000000 -y 420.000000 -U 4.999559 -V 0.066439 -T 60.205315
n -t 1.000000 -s 27 -x 461.000000 -y 122.000000 -U 2.661111 -V 4.233023 -T 80.793317
+ -t 1.000000000 -s 21 -d -1 -p cbr -e 1000 -c 2 -a 0 -i 0 -k AGT 
- -t 1.000000000 -s 21 -d -1 -p cbr -e 1000 -c 2 -a 0 -i 0 -k AGT
h -t 1.000000000 -s 21 -d -1 -p cbr -e 1000 -c 2 -a 0 -i 0 -k AGT
+ -t 1.000000000 -s 21 -d -1 -p AODV -e 48 -c 2 -a 0 -i 0 -k RTR 
- -t 1.000000000 -s 21 -d -1 -p AODV -e 48 -c 2 -a 0 -i 0 -k RTR
h -t 1.000000000 -s 21 -d -1 -p AODV -e 48 -c 2 -a 0 -i 0 -k RTR
+ -t 1.000535000 -s 21 -d -1 -p AODV -e 106 -c 2 -a 0 -i 0 -k MAC 
- -t 1.000535000 -s 21 -d -1 -p AODV -e 106 -c 2 -a 0 -i 0 -k MAC
h -t 1.000535000 -s 21 -d -1 -p AODV -e 106 -c 2 -a 0 -i 0 -k MAC
r -t 1.001383232 -s 22 -d -1 -p AODV -e 48 -c 2 -a 0 -i 0 -k MAC
r -t 1.001383448 -s 25 -d -1 -p AODV -e 48 -c 2 -a 0 -i 0 -k MAC
r -t 1.001383450 -s 15 -d -1 -p AODV -e 48 -c 2 -a 0 -i 0 -k MAC
r -t 1.001383514 -s 28 -d -1 -p AODV -e 48 -c 2 -a 0 -i 0 -k MAC
r -t 1.001383516 -s 20 -d -1 -p AODV -e 48 -c 2 -a 0 -i 0 -k MAC
r -t 1.001383532 -s 23 -d -1 -p AODV -e 48 -c 2 -a 0 -i 0 -k MAC
r -t 1.001408232 -s 22 -d -1 -p AODV -e 48 -c 2 -a 0 -i 0 -k RTR
r -t 1.001408448 -s 25 -d -1 -p AODV -e 48 -c 2 -a 0 -i 0 -k RTR
r -t 1.001408450 -s 15 -d -1 -p AODV -e 48 -c 2 -a 0 -i 0 -k RTR
r -t 1.001408514 -s 28 -d -1 -p AODV -e 48 -c 2 -a 0 -i 0 -k RTR
r -t 1.001408516 -s 20 -d -1 -p AODV -e 48 -c 2 -a 0 -i 0 -k RTR
r -t 1.001408532 -s 23 -d -1 -p AODV -e 48 -c 2 -a 0 -i 0 -k RTR
+ -t 1.001550278 -s 22 -d -1 -p AODV -e 48 -c 2 -a 0 -i 0 -k RTR 
- -t 1.001550278 -s 22 -d -1 -p AODV -e 48 -c 2 -a 0 -i 0 -k RTR
h -t 1.001550278 -s 22 -d -1 -p AODV -e 48 -c 2 -a 0 -i 0 -k RTR
+ -t 1.001865278 -s 22 -d -1 -p AODV -e 106 -c 2 -a 0 -i 0 -k MAC 
- -t 1.001865278 -s 22 -d -1 -p AODV -e 106 -c 2 -a 0 -i 0 -k MAC
h -t 1.001865278 -s 22 -d -1 -p AODV -e 106 -c 2 -a 0 -i 0 -k MAC
+ -t 1.002289675 -s 25 -d -1 -p AODV -e 48 -c 2 -a 0 -i 0 -k RTR 
- -t 1.002289675 -s 25 -d -1 -p AODV -e 48 -c 2 -a 0 -i 0 -k RTR
h -t 1.002289675 -s 25 -d -1 -p AODV -e 48 -c 2 -a 0 -i 0 -k RTR
r -t 1.002713510 -s 21 -d -1 -p AODV -e 48 -c 2 -a 0 -i 0 -k MAC
r -t 1.002713599 -s 23 -d -1 -p AODV -e 48 -c 2 -a 0 -i 0 -k MAC
r -t 1.002713705 -s 15 -d -1 -p AODV -e 48 -c 2 -a 0 -i 0 -k MAC
r -t 1.002713903 -s 24 -d -1 -p AODV -e 48 -c 2 -a 0 -i 0 -k MAC
r -t 1.002713943 -s 25 -d -1 -p AODV -e 48 -c 2 -a 0 -i 0 -k MAC
r -t 1.002713957 -s 20 -d -1 -p AODV -e 48 -c 2 -a 0 -i 0 -k MAC
r -t 1.002713976 -s 28 -d -1 -p AODV -e 48 -c 2 -a 0 -i 0 -k MAC
r -t 1.002714005 -s 27 -d -1 -p AODV -e 48 -c 2 -a 0 -i 0 -k MAC
r -t 1.002714058 -s 9 -d -1 -p AODV -e 48 -c 2 -a 0 -i 0 -k MAC
r -t 1.002738510 -s 21 -d -1 -p AODV -e 48 -c 2 -a 0 -i 0 -k RTR
r -t 1.002738599 -s 23 -d -1 -p AODV -e 48 -c 2 -a 0 -i 0 -k RTR
r -t 1.002738705 -s 15 -d -1 -p AODV -e 48 -c 2 -a 0 -i 0 -k RTR
r -t 1.002738903 -s 24 -d -1 -p AODV -e 48 -c 2 -a 0 -i 0 -k RTR
r -t 1.002738943 -s 25 -d -1 -p AODV -e 48 -c 2 -a 0 -i 0 -k RTR
r -t 1.002738957 -s 20 -d -1 -p AODV -e 48 -c 2 -a 0 -i 0 -k RTR
r -t 1.002738976 -s 28 -d -1 -p AODV -e 48 -c 2 -a 0 -i 0 -k RTR
r -t 1.002739005 -s 27 -d -1 -p AODV -e 48 -c 2 -a 0 -i 0 -k RTR
r -t 1.002739058 -s 9 -d -1 -p AODV -e 48 -c 2 -a 0 -i 0 -k RTR
+ -t 1.003123943 -s 25 -d -1 -p AODV -e 106 -c 2 -a 0 -i 0 -k MAC 
- -t 1.003123943 -s 25 -d -1 -p AODV -e 106 -c 2 -a 0 -i 0 -k MAC
h -t 1.003123943 -s 25 -d -1 -p AODV -e 106 -c 2 -a 0 -i 0 -k MAC
+ -t 1.003167003 -s 9 -d -1 -p AODV -e 48 -c 2 -a 0 -i 0 -k RTR 
- -t 1.003167003 -s 9 -d -1 -p AODV -e 48 -c 2 -a 0 -i 0 -k RTR
h -t 1.003167003 -s 9 -d -1 -p AODV -e 48 -c 2 -a 0 -i 0 -k RTR
r -t 1.003972188 -s 20 -d -1 -p AODV -e 48 -c 2 -a 0 -i 0 -k MAC
r -t 1.003972392 -s 21 -d -1 -p AODV -e 48 -c 2 -a 0 -i 0 -k MAC
r -t 1.003972496 -s 28 -d -1 -p AODV -e 48 -c 2 -a 0 -i 0 -k MAC
r -t 1.003972553 -s 15 -d -1 -p AODV -e 48 -c 2 -a 0 -i 0 -k MAC
r -t 1.003972609 -s 22 -d -1 -p AODV -e 48 -c 2 -a 0 -i 0 -k MAC
r -t 1.003972647 -s 26 -d -1 -p AODV -e 48 -c 2 -a 0 -i 0 -k MAC
r -t 1.003972656 -s 1 -d -1 -p AODV -e 48 -c 2 -a 0 -i 0 -k MAC
r -t 1.003972659 -s 19 -d -1 -p AODV -e 48 -c 2 -a 0 -i 0 -k MAC
r -t 1.003972669 -s 29 -d -1 -p AODV -e 48 -c 2 -a 0 -i 0 -k MAC
r -t 1.003997188 -s 20 -d -1 -p AODV -e 48 -c 2 -a 0 -i 0 -k RTR
r -t 1.003997392 -s 21 -d -1 -p AODV -e 48 -c 2 -a 0 -i 0 -k RTR
r -t 1.003997496 -s 28 -d -1 -p AODV -e 48 -c 2 -a 0 -i 0 -k RTR
r -t 1.003997553 -s 15 -d -1 -p AODV -e 48 -c 2 -a 0 -i 0 -k RTR
r -t 1.003997609 -s 22 -d -1 -p AODV -e 48 -c 2 -a 0 -i 0 -k RTR
r -t 1.003997647 -s 26 -d -1 -p AODV -e 48 -c 2 -a 0 -i 0 -k RTR
r -t 1.003997656 -s 1 -d -1 -p AODV -e 48 -c 2 -a 0 -i 0 -k RTR
r -t 1.003997659 -s 19 -d -1 -p AODV -e 48 -c 2 -a 0 -i 0 -k RTR
r -t 1.003997669 -s 29 -d -1 -p AODV -e 48 -c 2 -a 0 -i 0 -k RTR
+ -t 1.003997669 -s 29 -d 25 -p AODV -e 44 -c 2 -a 0 -i 0 -k RTR 
- -t 1.003997669 -s 29 -d 25 -p AODV -e 44 -c 2 -a 0 -i 0 -k RTR
h -t 1.003997669 -s 29 -d 25 -p AODV -e 44 -c 2 -a 0 -i 0 -k RTR
+ -t 1.004380459 -s 27 -d -1 -p AODV -e 48 -c 2 -a 0 -i 0 -k RTR 
- -t 1.004380459 -s 27 -d -1 -p AODV -e 48 -c 2 -a 0 -i 0 -k RTR
h -t 1.004380459 -s 27 -d -1 -p AODV -e 48 -c 2 -a 0 -i 0 -k RTR
+ -t 1.004392669 -s 29 -d -1 -p ARP -e 86 -c 2 -a 0 -i 0 -k MAC 
- -t 1.004392669 -s 29 -d -1 -p ARP -e 86 -c 2 -a 0 -i 0 -k MAC
h -t 1.004392669 -s 29 -d -1 -p ARP -e 86 -c 2 -a 0 -i 0 -k MAC
+ -t 1.004538134 -s 20 -d -1 -p AODV -e 48 -c 2 -a 0 -i 0 -k RTR 
- -t 1.004538134 -s 20 -d -1 -p AODV -e 48 -c 2 -a 0 -i 0 -k RTR
h -t 1.004538134 -s 20 -d -1 -p AODV -e 48 -c 2 -a 0 -i 0 -k RTR
r -t 1.005081031 -s 28 -d -1 -p ARP -e 28 -c 2 -a 0 -i 0 -k MAC
r -t 1.005081394 -s 25 -d -1 -p ARP -e 28 -c 2 -a 0 -i 0 -k MAC
+ -t 1.005156394 -s 25 -d -1 -p RTS -e 44 -c 2 -a 0 -i 0 -k MAC 
- -t 1.005156394 -s 25 -d -1 -p RTS -e 44 -c 2 -a 0 -i 0 -k MAC
h -t 1.005156394 -s 25 -d -1 -p RTS -e 44 -c 2 -a 0 -i 0 -k MAC
r -t 1.005509119 -s 29 -d -1 -p RTS -e 44 -c 2 -a 0 -i 0 -k MAC
+ -t 1.005519119 -s 29 -d -1 -p CTS -e 38 -c 2 -a 0 -i 0 -k MAC 
- -t 1.005519119 -s 29 -d -1 -p CTS -e 38 -c 2 -a 0 -i 0 -k MAC
h -t 1.005519119 -s 29 -d -1 -p CTS -e 38 -c 2 -a 0 -i 0 -k MAC
+ -t 1.005745711 -s 19 -d -1 -p AODV -e 48 -c 2 -a 0 -i 0 -k RTR 
- -t 1.005745711 -s 19 -d -1 -p AODV -e 48 -c 2 -a 0 -i 0 -k RTR
h -t 1.005745711 -s 19 -d -1 -p AODV -e 48 -c 2 -a 0 -i 0 -k RTR
+ -t 1.005820183 -s 15 -d -1 -p AODV -e 48 -c 2 -a 0 -i 0 -k RTR 
- -t 1.005820183 -s 15 -d -1 -p AODV -e 48 -c 2 -a 0 -i 0 -k RTR
h -t 1.005820183 -s 15 -d -1 -p AODV -e 48 -c 2 -a 0 -i 0 -k RTR
r -t 1.005823844 -s 25 -d -1 -p CTS -e 38 -c 2 -a 0 -i 0 -k MAC
+ -t 1.005833844 -s 25 -d -1 -p ARP -e 86 -c 2 -a 0 -i 0 -k MAC 
- -t 1.005833844 -s 25 -d -1 -p ARP -e 86 -c 2 -a 0 -i 0 -k MAC
h -t 1.005833844 -s 25 -d -1 -p ARP -e 86 -c 2 -a 0 -i 0 -k MAC
r -t 1.006522569 -s 29 -d -1 -p ARP -e 28 -c 2 -a 0 -i 0 -k MAC
+ -t 1.006532569 -s 29 -d -1 -p ACK -e 38 -c 2 -a 0 -i 0 -k MAC 
- -t 1.006532569 -s 29 -d -1 -p ACK -e 38 -c 2 -a 0 -i 0 -k MAC
h -t 1.006532569 -s 29 -d -1 -p ACK -e 38 -c 2 -a 0 -i 0 -k MAC
r -t 1.006837295 -s 25 -d -1 -p ACK -e 38 -c 2 -a 0 -i 0 -k MAC
+ -t 1.007086569 -s 29 -d -1 -p RTS -e 44 -c 2 -a 0 -i 0 -k MAC 
- -t 1.007086569 -s 29 -d -1 -p RTS -e 44 -c 2 -a 0 -i 0 -k MAC
h -t 1.007086569 -s 29 -d -1 -p RTS -e 44 -c 2 -a 0 -i 0 -k MAC
r -t 1.007439295 -s 25 -d -1 -p RTS -e 44 -c 2 -a 0 -i 0 -k MAC
+ -t 1.007449295 -s 25 -d -1 -p CTS -e 38 -c 2 -a 0 -i 0 -k MAC 
- -t 1.007449295 -s 25 -d -1 -p CTS -e 38 -c 2 -a 0 -i 0 -k MAC
h -t 1.007449295 -s 25 -d -1 -p CTS -e 38 -c 2 -a 0 -i 0 -k MAC
r -t 1.007754020 -s 29 -d -1 -p CTS -e 38 -c 2 -a 0 -i 0 -k MAC
+ -t 1.007764020 -s 29 -d 25 -p AODV -e 102 -c 2 -a 0 -i 0 -k MAC 
- -t 1.007764020 -s 29 -d 25 -p AODV -e 102 -c 2 -a 0 -i 0 -k MAC
h -t 1.007764020 -s 29 -d 25 -p AODV -e 102 -c 2 -a 0 -i 0 -k MAC
+ -t 1.008234223 -s 1 -d -1 -p AODV -e 48 -c 2 -a 0 -i 0 -k RTR 
- -t 1.008234223 -s 1 -d -1 -p AODV -e 48 -c 2 -a 0 -i 0 -k RTR
h -t 1.008234223 -s 1 -d -1 -p AODV -e 48 -c 2 -a 0 -i 0 -k RTR
r -t 1.008580745 -s 25 -d 25 -p AODV -e 44 -c 2 -a 0 -i 0 -k MAC
+ -t 1.008590745 -s 25 -d -1 -p ACK -e 38 -c 2 -a 0 -i 0 -k MAC 
- -t 1.008590745 -s 25 -d -1 -p ACK -e 38 -c 2 -a 0 -i 0 -k MAC
h -t 1.008590745 -s 25 -d -1 -p ACK -e 38 -c 2 -a 0 -i 0 -k MAC
+ -t 1.008605745 -s 25 -d 21 -p AODV -e 44 -c 2 -a 0 -i 0 -k RTR 
- -t 1.008605745 -s 25 -d 21 -p AODV -e 44 -c 2 -a 0 -i 0 -k RTR
h -t 1.008605745 -s 25 -d 21 -p AODV -e 44 -c 2 -a 0 -i 0 -k RTR
r -t 1.008895470 -s 29 -d -1 -p ACK -e 38 -c 2 -a 0 -i 0 -k MAC
+ -t 1.009194989 -s 20 -d -1 -p AODV -e 106 -c 2 -a 0 -i 0 -k MAC 
- -t 1.009194989 -s 20 -d -1 -p AODV -e 106 -c 2 -a 0 -i 0 -k MAC
h -t 1.009194989 -s 20 -d -1 -p AODV -e 106 -c 2 -a 0 -i 0 -k MAC
+ -t 1.009400068 -s 28 -d -1 -p AODV -e 48 -c 2 -a 0 -i 0 -k RTR 
- -t 1.009400068 -s 28 -d -1 -p AODV -e 48 -c 2 -a 0 -i 0 -k RTR
h -t 1.009400068 -s 28 -d -1 -p AODV -e 48 -c 2 -a 0 -i 0 -k RTR
+ -t 1.009573293 -s 23 -d -1 -p AODV -e 48 -c 2 -a 0 -i 0 -k RTR 
- -t 1.009573293 -s 23 -d -1 -p AODV -e 48 -c 2 -a 0 -i 0 -k RTR
h -t 1.009573293 -s 23 -d -1 -p AODV -e 48 -c 2 -a 0 -i 0 -k RTR
r -t 1.010043233 -s 25 -d -1 -p AODV -e 48 -c 2 -a 0 -i 0 -k MAC
r -t 1.010043452 -s 26 -d -1 -p AODV -e 48 -c 2 -a 0 -i 0 -k MAC
r -t 1.010043454 -s 15 -d -1 -p AODV -e 48 -c 2 -a 0 -i 0 -k MAC
r -t 1.010043458 -s 1 -d -1 -p AODV -e 48 -c 2 -a 0 -i 0 -k MAC
r -t 1.010043491 -s 19 -d -1 -p AODV -e 48 -c 2 -a 0 -i 0 -k MAC
r -t 1.010043505 -s 21 -d -1 -p AODV -e 48 -c 2 -a 0 -i 0 -k MAC
r -t 1.010043667 -s 22 -d -1 -p AODV -e 48 -c 2 -a 0 -i 0 -k MAC
r -t 1.010043765 -s 28 -d -1 -p AODV -e 48 -c 2 -a 0 -i 0 -k MAC
r -t 1.010043811 -s 4 -d -1 -p AODV -e 48 -c 2 -a 0 -i 0 -k MAC
r -t 1.010068233 -s 25 -d -1 -p AODV -e 48 -c 2 -a 0 -i 0 -k RTR
r -t 1.010068452 -s 26 -d -1 -p AODV -e 48 -c 2 -a 0 -i 0 -k RTR
r -t 1.010068454 -s 15 -d -1 -p AODV -e 48 -c 2 -a 0 -i 0 -k RTR
r -t 1.010068458 -s 1 -d -1 -p AODV -e 48 -c 2 -a 0 -i 0 -k RTR
r -t 1.010068491 -s 19 -d -1 -p AODV -e 48 -c 2 -a 0 -i 0 -k RTR
r -t 1.010068505 -s 21 -d -1 -p AODV -e 48 -c 2 -a 0 -i 0 -k RTR
r -t 1.010068667 -s 22 -d -1 -p AODV -e 48 -c 2 -a 0 -i 0 -k RTR
r -t 1.010068765 -s 28 -d -1 -p AODV -e 48 -c 2 -a 0 -i 0 -k RTR
r -t 1.010068811 -s 4 -d -1 -p AODV -e 48 -c 2 -a 0 -i 0 -k RTR
+ -t 1.010133491 -s 19 -d -1 -p AODV -e 106 -c 2 -a 0 -i 0 -k MAC 
- -t 1.010133491 -s 19 -d -1 -p AODV -e 106 -c 2 -a 0 -i 0 -k MAC
h -t 1.010133491 -s 19 -d -1 -p AODV -e 106 -c 2 -a 0 -i 0 -k MAC
r -t 1.010981690 -s 26 -d -1 -p AODV -e 48 -c 2 -a 0 -i 0 -k MAC
r -t 1.010981734 -s 1 -d -1 -p AODV -e 48 -c 2 -a 0 -i 0 -k MAC
r -t 1.010981994 -s 20 -d -1 -p AODV -e 48 -c 2 -a 0 -i 0 -k MAC
r -t 1.010982123 -s 4 -d -1 -p AODV -e 48 -c 2 -a 0 -i 0 -k MAC
r -t 1.010982185 -s 0 -d -1 -p AODV -e 48 -c 2 -a 0 -i 0 -k MAC
r -t 1.010982206 -s 25 -d -1 -p AODV -e 48 -c 2 -a 0 -i 0 -k MAC
r -t 1.010982236 -s 15 -d -1 -p AODV -e 48 -c 2 -a 0 -i 0 -k MAC
r -t 1.010982257 -s 3 -d -1 -p AODV -e 48 -c 2 -a 0 -i 0 -k MAC
r -t 1.011006690 -s 26 -d -1 -p AODV -e 48 -c 2 -a 0 -i 0 -k RTR
r -t 1.011006734 -s 1 -d -1 -p AODV -e 48 -c 2 -a 0 -i 0 -k RTR
r -t 1.011006994 -s 20 -d -1 -p AODV -e 48 -c 2 -a 0 -i 0 -k RTR
r -t 1.011007123 -s 4 -d -1 -p AODV -e 48 -c 2 -a 0 -i 0 -k RTR
r -t 1.011007185 -s 0 -d -1 -p AODV -e 48 -c 2 -a 0 -i 0 -k RTR
r -t 1.011007206 -s 25 -d -1 -p AODV -e 48 -c 2 -a 0 -i 0 -k RTR
r -t 1.011007236 -s 15 -d -1 -p AODV -e 48 -c 2 -a 0 -i 0 -k RTR
r -t 1.011007257 -s 3 -d -1 -p AODV -e 48 -c 2 -a 0 -i 0 -k RTR
+ -t 1.011102138 -s 24 -d -1 -p AODV -e 48 -c 2 -a 0 -i 0 -k RTR 
- -t 1.011102138 -s 24 -d -1 -p AODV -e 48 -c 2 -a 0 -i 0 -k RTR
h -t 1.011102138 -s 24 -d -1 -p AODV -e 48 -c 2 -a 0 -i 0 -k RTR
+ -t 1.011152206 -s 25 -d -1 -p ARP -e 86 -c 2 -a 0 -i 0 -k MAC 
- -t 1.011152206 -s 25 -d -1 -p ARP -e 86 -c 2 -a 0 -i 0 -k MAC
h -t 1.011152206 -s 25 -d -1 -p ARP -e 86 -c 2 -a 0 -i 0 -k MAC
r -t 1.011840450 -s 20 -d -1 -p ARP -e 28 -c 2 -a 0 -i 0 -k MAC
r -t 1.011840656 -s 21 -d -1 -p ARP -e 28 -c 2 -a 0 -i 0 -k MAC
r -t 1.011840759 -s 28 -d -1 -p ARP -e 28 -c 2 -a 0 -i 0 -k MAC
r -t 1.011840816 -s 15 -d -1 -p ARP -e 28 -c 2 -a 0 -i 0 -k MAC
r -t 1.011840872 -s 22 -d -1 -p ARP -e 28 -c 2 -a 0 -i 0 -k MAC
r -t 1.011840910 -s 26 -d -1 -p ARP -e 28 -c 2 -a 0 -i 0 -k MAC
r -t 1.011840918 -s 1 -d -1 -p ARP -e 28 -c 2 -a 0 -i 0 -k MAC
r -t 1.011840921 -s 19 -d -1 -p ARP -e 28 -c 2 -a 0 -i 0 -k MAC
r -t 1.011840932 -s 29 -d -1 -p ARP -e 28 -c 2 -a 0 -i 0 -k MAC
+ -t 1.011970816 -s 15 -d -1 -p AODV -e 106 -c 2 -a 0 -i 0 -k MAC 
- -t 1.011970816 -s 15 -d -1 -p AODV -e 106 -c 2 -a 0 -i 0 -k MAC
h -t 1.011970816 -s 15 -d -1 -p AODV -e 106 -c 2 -a 0 -i 0 -k MAC
+ -t 1.012099242 -s 3 -d -1 -p AODV -e 48 -c 2 -a 0 -i 0 -k RTR 
- -t 1.012099242 -s 3 -d -1 -p AODV -e 48 -c 2 -a 0 -i 0 -k RTR
h -t 1.012099242 -s 3 -d -1 -p AODV -e 48 -c 2 -a 0 -i 0 -k RTR
+ -t 1.012594924 -s 26 -d -1 -p AODV -e 48 -c 2 -a 0 -i 0 -k RTR 
- -t 1.012594924 -s 26 -d -1 -p AODV -e 48 -c 2 -a 0 -i 0 -k RTR
h -t 1.012594924 -s 26 -d -1 -p AODV -e 48 -c 2 -a 0 -i 0 -k RTR
r -t 1.012819243 -s 22 -d -1 -p AODV -e 48 -c 2 -a 0 -i 0 -k MAC
r -t 1.012819266 -s 21 -d -1 -p AODV -e 48 -c 2 -a 0 -i 0 -k MAC
r -t 1.012819280 -s 20 -d -1 -p AODV -e 48 -c 2 -a 0 -i 0 -k MAC
r -t 1.012819365 -s 1 -d -1 -p AODV -e 48 -c 2 -a 0 -i 0 -k MAC
r -t 1.012819393 -s 27 -d -1 -p AODV -e 48 -c 2 -a 0 -i 0 -k MAC
r -t 1.012819396 -s 26 -d -1 -p AODV -e 48 -c 2 -a 0 -i 0 -k MAC
r -t 1.012819425 -s 25 -d -1 -p AODV -e 48 -c 2 -a 0 -i 0 -k MAC
r -t 1.012819434 -s 9 -d -1 -p AODV -e 48 -c 2 -a 0 -i 0 -k MAC
r -t 1.012819454 -s 4 -d -1 -p AODV -e 48 -c 2 -a 0 -i 0 -k MAC
r -t 1.012819499 -s 23 -d -1 -p AODV -e 48 -c 2 -a 0 -i 0 -k MAC
r -t 1.012819561 -s 19 -d -1 -p AODV -e 48 -c 2 -a 0 -i 0 -k MAC
r -t 1.012819631 -s 18 -d -1 -p AODV -e 48 -c 2 -a 0 -i 0 -k MAC
r -t 1.012819647 -s 24 -d -1 -p AODV -e 48 -c 2 -a 0 -i 0 -k MAC
r -t 1.012844243 -s 22 -d -1 -p AODV -e 48 -c 2 -a 0 -i 0 -k RTR
r -t 1.012844266 -s 21 -d -1 -p AODV -e 48 -c 2 -a 0 -i 0 -k RTR
r -t 1.012844280 -s 20 -d -1 -p AODV -e 48 -c 2 -a 0 -i 0 -k RTR
r -t 1.012844365 -s 1 -d -1 -p AODV -e 48 -c 2 -a 0 -i 0 -k RTR
r -t 1.012844393 -s 27 -d -1 -p AODV -e 48 -c 2 -a 0 -i 0 -k RTR
r -t 1.012844396 -s 26 -d -1 -p AODV -e 48 -c 2 -a 0 -i 0 -k RTR
r -t 1.012844425 -s 25 -d -1 -p AODV -e 48 -c 2 -a 0 -i 0 -k RTR
r -t 1.012844434 -s 9 -d -1 -p AODV -e 48 -c 2 -a 0 -i 0 -k RTR
r -t 1.012844454 -s 4 -d -1 -p AODV -e 48 -c 2 -a 0 -i 0 -k RTR
r -t 1.012844499 -s 23 -d -1 -p AODV -e 48 -c 2 -a 0 -i 0 -k RTR
r -t 1.012844561 -s 19 -d -1 -p AODV -e 48 -c 2 -a 0 -i 0 -k RTR
r -t 1.012844631 -s 18 -d -1 -p AODV -e 48 -c 2 -a 0 -i 0 -k RTR
r -t 1.012844647 -s 24 -d -1 -p AODV -e 48 -c 2 -a 0 -i 0 -k RTR
+ -t 1.012909499 -s 23 -d -1 -p AODV -e 106 -c 2 -a 0 -i 0 -k MAC 
- -t 1.012909499 -s 23 -d -1 -p AODV -e 106 -c 2 -a 0 -i 0 -k MAC
h -t 1.012909499 -s 23 -d -1 -p AODV -e 106 -c 2 -a 0 -i 0 -k MAC
+ -t 1.013428657 -s 18 -d -1 -p AODV -e 48 -c 2 -a 0 -i 0 -k RTR 
- -t 1.013428657 -s 18 -d -1 -p AODV -e 48 -c 2 -a 0 -i 0 -k RTR
h -t 1.013428657 -s 18 -d -1 -p AODV -e 48 -c 2 -a 0 -i 0 -k RTR
r -t 1.013757821 -s 22 -d -1 -p AODV -e 48 -c 2 -a 0 -i 0 -k MAC
r -t 1.013757876 -s 24 -d -1 -p AODV -e 48 -c 2 -a 0 -i 0 -k MAC
r -t 1.013758030 -s 21 -d -1 -p AODV -e 48 -c 2 -a 0 -i 0 -k MAC
r -t 1.013758183 -s 15 -d -1 -p AODV -e 48 -c 2 -a 0 -i 0 -k MAC
r -t 1.013758237 -s 27 -d -1 -p AODV -e 48 -c 2 -a 0 -i 0 -k MAC
r -t 1.013758286 -s 9 -d -1 -p AODV -e 48 -c 2 -a 0 -i 0 -k MAC
r -t 1.013782821 -s 22 -d -1 -p AODV -e 48 -c 2 -a 0 -i 0 -k RTR
r -t 1.013782876 -s 24 -d -1 -p AODV -e 48 -c 2 -a 0 -i 0 -k RTR
r -t 1.013783030 -s 21 -d -1 -p AODV -e 48 -c 2 -a 0 -i 0 -k RTR
r -t 1.013783183 -s 15 -d -1 -p AODV -e 48 -c 2 -a 0 -i 0 -k RTR
r -t 1.013783237 -s 27 -d -1 -p AODV -e 48 -c 2 -a 0 -i 0 -k RTR
r -t 1.013783286 -s 9 -d -1 -p AODV -e 48 -c 2 -a 0 -i 0 -k RTR
+ -t 1.013928286 -s 9 -d -1 -p AODV -e 106 -c 2 -a 0 -i 0 -k MAC 
- -t 1.013928286 -s 9 -d -1 -p AODV -e 106 -c 2 -a 0 -i 0 -k MAC
h -t 1.013928286 -s 9 -d -1 -p AODV -e 106 -c 2 -a 0 -i 0 -k MAC
r -t 1.014776339 -s 27 -d -1 -p AODV -e 48 -c 2 -a 0 -i 0 -k MAC
r -t 1.014776584 -s 12 -d -1 -p AODV -e 48 -c 2 -a 0 -i 0 -k MAC
r -t 1.014776750 -s 18 -d -1 -p AODV -e 48 -c 2 -a 0 -i 0 -k MAC
r -t 1.014776904 -s 24 -d -1 -p AODV -e 48 -c 2 -a 0 -i 0 -k MAC
r -t 1.014776904 -s 15 -d -1 -p AODV -e 48 -c 2 -a 0 -i 0 -k MAC
r -t 1.014776921 -s 6 -d -1 -p AODV -e 48 -c 2 -a 0 -i 0 -k MAC
r -t 1.014776985 -s 7 -d -1 -p AODV -e 48 -c 2 -a 0 -i 0 -k MAC
r -t 1.014777016 -s 4 -d -1 -p AODV -e 48 -c 2 -a 0 -i 0 -k MAC
r -t 1.014777040 -s 13 -d -1 -p AODV -e 48 -c 2 -a 0 -i 0 -k MAC
r -t 1.014777066 -s 22 -d -1 -p AODV -e 48 -c 2 -a 0 -i 0 -k MAC
r -t 1.014777073 -s 23 -d -1 -p AODV -e 48 -c 2 -a 0 -i 0 -k MAC
r -t 1.014777080 -s 10 -d -1 -p AODV -e 48 -c 2 -a 0 -i 0 -k MAC
r -t 1.014801339 -s 27 -d -1 -p AODV -e 48 -c 2 -a 0 -i 0 -k RTR
r -t 1.014801584 -s 12 -d -1 -p AODV -e 48 -c 2 -a 0 -i 0 -k RTR
r -t 1.014801750 -s 18 -d -1 -p AODV -e 48 -c 2 -a 0 -i 0 -k RTR
r -t 1.014801904 -s 24 -d -1 -p AODV -e 48 -c 2 -a 0 -i 0 -k RTR
r -t 1.014801904 -s 15 -d -1 -p AODV -e 48 -c 2 -a 0 -i 0 -k RTR
r -t 1.014801921 -s 6 -d -1 -p AODV -e 48 -c 2 -a 0 -i 0 -k RTR
r -t 1.014801985 -s 7 -d -1 -p AODV -e 48 -c 2 -a 0 -i 0 -k RTR
r -t 1.014802016 -s 4 -d -1 -p AODV -e 48 -c 2 -a 0 -i 0 -k RTR
r -t 1.014802040 -s 13 -d -1 -p AODV -e 48 -c 2 -a 0 -i 0 -k RTR
r -t 1.014802066 -s 22 -d -1 -p AODV -e 48 -c 2 -a 0 -i 0 -k RTR
r -t 1.014802073 -s 23 -d -1 -p AODV -e 48 -c 2 -a 0 -i 0 -k RTR
r -t 1.014802080 -s 10 -d -1 -p AODV -e 48 -c 2 -a 0 -i 0 -k RTR
+ -t 1.014866904 -s 24 -d -1 -p AODV -e 106 -c 2 -a 0 -i 0 -k MAC 
- -t 1.014866904 -s 24 -d -1 -p AODV -e 106 -c 2 -a 0 -i 0 -k MAC
h -t 1.014866904 -s 24 -d -1 -p AODV -e 106 -c 2 -a 0 -i 0 -k MAC
+ -t 1.015062376 -s 0 -d -1 -p AODV -e 48 -c 2 -a 0 -i 0 -k RTR 
- -t 1.015062376 -s 0 -d -1 -p AODV -e 48 -c 2 -a 0 -i 0 -k RTR
h -t 1.015062376 -s 0 -d -1 -p AODV -e 48 -c 2 -a 0 -i 0 -k RTR
+ -t 1.015411659 -s 0 -d -1 -p AODV -e 106 -c 2 -a 0 -i 0 -k MAC 
- -t 1.015411659 -s 0 -d -1 -p AODV -e 106 -c 2 -a 0 -i 0 -k MAC
h -t 1.015411659 -s 0 -d -1 -p AODV -e 106 -c 2 -a 0 -i 0 -k MAC
d -t 1.015412859 -s 15 -d -1 -p AODV -e 106 -c 2 -a 0 -i 0 -k MAC
r -t 1.015715280 -s 23 -d -1 -p AODV -e 48 -c 2 -a 0 -i 0 -k MAC
r -t 1.015715487 -s 27 -d -1 -p AODV -e 48 -c 2 -a 0 -i 0 -k MAC
r -t 1.015715521 -s 9 -d -1 -p AODV -e 48 -c 2 -a 0 -i 0 -k MAC
r -t 1.015715528 -s 22 -d -1 -p AODV -e 48 -c 2 -a 0 -i 0 -k MAC
r -t 1.015715558 -s 12 -d -1 -p AODV -e 48 -c 2 -a 0 -i 0 -k MAC
r -t 1.015740280 -s 23 -d -1 -p AODV -e 48 -c 2 -a 0 -i 0 -k RTR
r -t 1.015740487 -s 27 -d -1 -p AODV -e 48 -c 2 -a 0 -i 0 -k RTR
r -t 1.015740521 -s 9 -d -1 -p AODV -e 48 -c 2 -a 0 -i 0 -k RTR
r -t 1.015740528 -s 22 -d -1 -p AODV -e 48 -c 2 -a 0 -i 0 -k RTR
r -t 1.015740558 -s 12 -d -1 -p AODV -e 48 -c 2 -a 0 -i 0 -k RTR
+ -t 1.016032619 -s 12 -d -1 -p AODV -e 48 -c 2 -a 0 -i 0 -k RTR 
- -t 1.016032619 -s 12 -d -1 -p AODV -e 48 -c 2 -a 0 -i 0 -k RTR
h -t 1.016032619 -s 12 -d -1 -p AODV -e 48 -c 2 -a 0 -i 0 -k RTR
d -t 1.016259963 -s 3 -d -1 -p AODV -e 106 -c 2 -a 0 -i 0 -k MAC
r -t 1.016260159 -s 2 -d -1 -p AODV -e 48 -c 2 -a 0 -i 0 -k MAC
d -t 1.016260308 -s 4 -d -1 -p AODV -e 106 -c 2 -a 0 -i 0 -k MAC
d -t 1.016260341 -s 5 -d -1 -p AODV -e 106 -c 2 -a 0 -i 0 -k MAC
d -t 1.016260353 -s 19 -d -1 -p AODV -e 106 -c 2 -a 0 -i 0 -k MAC
d -t 1.016260359 -s 26 -d -1 -p AODV -e 106 -c 2 -a 0 -i 0 -k MAC
d -t 1.016260364 -s 1 -d -1 -p AODV -e 106 -c 2 -a 0 -i 0 -k MAC
r -t 1.016285159 -s 2 -d -1 -p AODV -e 48 -c 2 -a 0 -i 0 -k RTR
+ -t 1.016370169 -s 28 -d -1 -p AODV -e 106 -c 2 -a 0 -i 0 -k MAC 
- -t 1.016370169 -s 28 -d -1 -p AODV -e 106 -c 2 -a 0 -i 0 -k MAC
h -t 1.016370169 -s 28 -d -1 -p AODV -e 106 -c 2 -a 0 -i 0 -k MAC
+ -t 1.016560734 -s 2 -d -1 -p AODV -e 48 -c 2 -a 0 -i 0 -k RTR 
- -t 1.016560734 -s 2 -d -1 -p AODV -e 48 -c 2 -a 0 -i 0 -k RTR
h -t 1.016560734 -s 2 -d -1 -p AODV -e 48 -c 2 -a 0 -i 0 -k RTR
+ -t 1.016893963 -s 3 -d -1 -p AODV -e 106 -c 2 -a 0 -i 0 -k MAC 
- -t 1.016893963 -s 3 -d -1 -p AODV -e 106 -c 2 -a 0 -i 0 -k MAC
h -t 1.016893963 -s 3 -d -1 -p AODV -e 106 -c 2 -a 0 -i 0 -k MAC
d -t 1.016895106 -s 20 -d -1 -p AODV -e 106 -c 2 -a 0 -i 0 -k MAC
r -t 1.017218531 -s 29 -d -1 -p AODV -e 48 -c 2 -a 0 -i 0 -k MAC
r -t 1.017218682 -s 21 -d -1 -p AODV -e 48 -c 2 -a 0 -i 0 -k MAC
r -t 1.017218721 -s 25 -d -1 -p AODV -e 48 -c 2 -a 0 -i 0 -k MAC
r -t 1.017218867 -s 22 -d -1 -p AODV -e 48 -c 2 -a 0 -i 0 -k MAC
r -t 1.017243531 -s 29 -d -1 -p AODV -e 48 -c 2 -a 0 -i 0 -k RTR
r -t 1.017243682 -s 21 -d -1 -p AODV -e 48 -c 2 -a 0 -i 0 -k RTR
r -t 1.017243721 -s 25 -d -1 -p AODV -e 48 -c 2 -a 0 -i 0 -k RTR
r -t 1.017243867 -s 22 -d -1 -p AODV -e 48 -c 2 -a 0 -i 0 -k RTR
+ -t 1.017371923 -s 7 -d -1 -p AODV -e 48 -c 2 -a 0 -i 0 -k RTR 
- -t 1.017371923 -s 7 -d -1 -p AODV -e 48 -c 2 -a 0 -i 0 -k RTR
h -t 1.017371923 -s 7 -d -1 -p AODV -e 48 -c 2 -a 0 -i 0 -k RTR
+ -t 1.017691130 -s 4 -d -1 -p AODV -e 48 -c 2 -a 0 -i 0 -k RTR 
- -t 1.017691130 -s 4 -d -1 -p AODV -e 48 -c 2 -a 0 -i 0 -k RTR
h -t 1.017691130 -s 4 -d -1 -p AODV -e 48 -c 2 -a 0 -i 0 -k RTR
r -t 1.017742266 -s 0 -d -1 -p AODV -e 48 -c 2 -a 0 -i 0 -k MAC
r -t 1.017742375 -s 2 -d -1 -p AODV -e 48 -c 2 -a 0 -i 0 -k MAC
d -t 1.017742403 -s 4 -d -1 -p AODV -e 106 -c 2 -a 0 -i 0 -k MAC
r -t 1.017742417 -s 5 -d -1 -p AODV -e 48 -c 2 -a 0 -i 0 -k MAC
r -t 1.017742562 -s 8 -d -1 -p AODV -e 48 -c 2 -a 0 -i 0 -k MAC
r -t 1.017742627 -s 7 -d -1 -p AODV -e 48 -c 2 -a 0 -i 0 -k MAC
d -t 1.017742638 -s 1 -d -1 -p AODV -e 106 -c 2 -a 0 -i 0 -k MAC
d -t 1.017742652 -s 26 -d -1 -p AODV -e 106 -c 2 -a 0 -i 0 -k MAC
d -t 1.017742709 -s 18 -d -1 -p AODV -e 106 -c 2 -a 0 -i 0 -k MAC
d -t 1.017742729 -s 19 -d -1 -p AODV -e 106 -c 2 -a 0 -i 0 -k MAC
r -t 1.017742764 -s 17 -d -1 -p AODV -e 48 -c 2 -a 0 -i 0 -k MAC
r -t 1.017767266 -s 0 -d -1 -p AODV -e 48 -c 2 -a 0 -i 0 -k RTR
r -t 1.017767375 -s 2 -d -1 -p AODV -e 48 -c 2 -a 0 -i 0 -k RTR
r -t 1.017767417 -s 5 -d -1 -p AODV -e 48 -c 2 -a 0 -i 0 -k RTR
r -t 1.017767562 -s 8 -d -1 -p AODV -e 48 -c 2 -a 0 -i 0 -k RTR
r -t 1.017767627 -s 7 -d -1 -p AODV -e 48 -c 2 -a 0 -i 0 -k RTR
r -t 1.017767764 -s 17 -d -1 -p AODV -e 48 -c 2 -a 0 -i 0 -k RTR
+ -t 1.017852375 -s 2 -d -1 -p AODV -e 106 -c 2 -a 0 -i 0 -k MAC 
- -t 1.017852375 -s 2 -d -1 -p AODV -e 106 -c 2 -a 0 -i 0 -k MAC
h -t 1.017852375 -s 2 -d -1 -p AODV -e 106 -c 2 -a 0 -i 0 -k MAC
+ -t 1.018457451 -s 21 -d -1 -p RTS -e 44 -c 2 -a 0 -i 0 -k MAC 
- -t 1.018457451 -s 21 -d -1 -p RTS -e 44 -c 2 -a 0 -i 0 -k MAC
h -t 1.018457451 -s 21 -d -1 -p RTS -e 44 -c 2 -a 0 -i 0 -k MAC
d -t 1.018458529 -s 4 -d -1 -p AODV -e 106 -c 2 -a 0 -i 0 -k MAC
r -t 1.018700673 -s 5 -d -1 -p AODV -e 48 -c 2 -a 0 -i 0 -k MAC
r -t 1.018700787 -s 3 -d -1 -p AODV -e 48 -c 2 -a 0 -i 0 -k MAC
r -t 1.018700803 -s 17 -d -1 -p AODV -e 48 -c 2 -a 0 -i 0 -k MAC
r -t 1.018700874 -s 0 -d -1 -p AODV -e 48 -c 2 -a 0 -i 0 -k MAC
r -t 1.018700950 -s 8 -d -1 -p AODV -e 48 -c 2 -a 0 -i 0 -k MAC
r -t 1.018701002 -s 16 -d -1 -p AODV -e 48 -c 2 -a 0 -i 0 -k MAC
r -t 1.018701187 -s 7 -d -1 -p AODV -e 48 -c 2 -a 0 -i 0 -k MAC
r -t 1.018725673 -s 5 -d -1 -p AODV -e 48 -c 2 -a 0 -i 0 -k RTR
r -t 1.018725787 -s 3 -d -1 -p AODV -e 48 -c 2 -a 0 -i 0 -k RTR
r -t 1.018725803 -s 17 -d -1 -p AODV -e 48 -c 2 -a 0 -i 0 -k RTR
r -t 1.018725874 -s 0 -d -1 -p AODV -e 48 -c 2 -a 0 -i 0 -k RTR
r -t 1.018725950 -s 8 -d -1 -p AODV -e 48 -c 2 -a 0 -i 0 -k RTR
r -t 1.018726002 -s 16 -d -1 -p AODV -e 48 -c 2 -a 0 -i 0 -k RTR
r -t 1.018726187 -s 7 -d -1 -p AODV -e 48 -c 2 -a 0 -i 0 -k RTR
d -t 1.018809902 -s 25 -d -1 -p RTS -e 44 -c 2 -a 0 -i 0 -k MAC
+ -t 1.019304698 -s 18 -d -1 -p AODV -e 106 -c 2 -a 0 -i 0 -k MAC 
- -t 1.019304698 -s 18 -d -1 -p AODV -e 106 -c 2 -a 0 -i 0 -k MAC
h -t 1.019304698 -s 18 -d -1 -p AODV -e 106 -c 2 -a 0 -i 0 -k MAC
+ -t 1.019555042 -s 17 -d -1 -p AODV -e 48 -c 2 -a 0 -i 0 -k RTR 
- -t 1.019555042 -s 17 -d -1 -p AODV -e 48 -c 2 -a 0 -i 0 -k RTR
h -t 1.019555042 -s 17 -d -1 -p AODV -e 48 -c 2 -a 0 -i 0 -k RTR
+ -t 1.019639571 -s 16 -d -1 -p AODV -e 48 -c 2 -a 0 -i 0 -k RTR 
- -t 1.019639571 -s 16 -d -1 -p AODV -e 48 -c 2 -a 0 -i 0 -k RTR
h -t 1.019639571 -s 16 -d -1 -p AODV -e 48 -c 2 -a 0 -i 0 -k RTR
+ -t 1.019834757 -s 5 -d -1 -p AODV -e 48 -c 2 -a 0 -i 0 -k RTR 
- -t 1.019834757 -s 5 -d -1 -p AODV -e 48 -c 2 -a 0 -i 0 -k RTR
h -t 1.019834757 -s 5 -d -1 -p AODV -e 48 -c 2 -a 0 -i 0 -k RTR
r -t 1.020152940 -s 7 -d -1 -p AODV -e 48 -c 2 -a 0 -i 0 -k MAC
r -t 1.020153126 -s 10 -d -1 -p AODV -e 48 -c 2 -a 0 -i 0 -k MAC
r -t 1.020153162 -s 9 -d -1 -p AODV -e 48 -c 2 -a 0 -i 0 -k MAC
r -t 1.020153185 -s 4 -d -1 -p AODV -e 48 -c 2 -a 0 -i 0 -k MAC
r -t 1.020153194 -s 6 -d -1 -p AODV -e 48 -c 2 -a 0 -i 0 -k MAC
r -t 1.020153200 -s 27 -d -1 -p AODV -e 48 -c 2 -a 0 -i 0 -k MAC
r -t 1.020153254 -s 8 -d -1 -p AODV -e 48 -c 2 -a 0 -i 0 -k MAC
r -t 1.020153259 -s 13 -d -1 -p AODV -e 48 -c 2 -a 0 -i 0 -k MAC
r -t 1.020153271 -s 12 -d -1 -p AODV -e 48 -c 2 -a 0 -i 0 -k MAC
r -t 1.020153444 -s 3 -d -1 -p AODV -e 48 -c 2 -a 0 -i 0 -k MAC
r -t 1.020153447 -s 11 -d -1 -p AODV -e 48 -c 2 -a 0 -i 0 -k MAC
r -t 1.020153455 -s 5 -d -1 -p AODV -e 48 -c 2 -a 0 -i 0 -k MAC
r -t 1.020153513 -s 15 -d -1 -p AODV -e 48 -c 2 -a 0 -i 0 -k MAC
r -t 1.020177940 -s 7 -d -1 -p AODV -e 48 -c 2 -a 0 -i 0 -k RTR
r -t 1.020178126 -s 10 -d -1 -p AODV -e 48 -c 2 -a 0 -i 0 -k RTR
r -t 1.020178162 -s 9 -d -1 -p AODV -e 48 -c 2 -a 0 -i 0 -k RTR
r -t 1.020178185 -s 4 -d -1 -p AODV -e 48 -c 2 -a 0 -i 0 -k RTR
r -t 1.020178194 -s 6 -d -1 -p AODV -e 48 -c 2 -a 0 -i 0 -k RTR
r -t 1.020178200 -s 27 -d -1 -p AODV -e 48 -c 2 -a 0 -i 0 -k RTR
r -t 1.020178254 -s 8 -d -1 -p AODV -e 48 -c 2 -a 0 -i 0 -k RTR
r -t 1.020178259 -s 13 -d -1 -p AODV -e 48 -c 2 -a 0 -i 0 -k RTR
r -t 1.020178271 -s 12 -d -1 -p AODV -e 48 -c 2 -a 0 -i 0 -k RTR
r -t 1.020178444 -s 3 -d -1 -p AODV -e 48 -c 2 -a 0 -i 0 -k RTR
r -t 1.020178447 -s 11 -d -1 -p AODV -e 48 -c 2 -a 0 -i 0 -k RTR
r -t 1.020178455 -s 5 -d -1 -p AODV -e 48 -c 2 -a 0 -i 0 -k RTR